LAMMPS (3 Mar 2020)
OMP_NUM_THREADS environment is not set. Defaulting to 1 thread. (src/comm.cpp:94)
  using 1 OpenMP thread(s) per MPI task
Reading data file ...
  orthogonal box = (-16.796 -16.796 -16.796) to (16.796 16.796 16.796)
  2 by 2 by 4 MPI processor grid
  reading atoms ...
  32000 atoms
  reading velocities ...
  32000 velocities
  scanning bonds ...
  1 = max bonds/atom
  reading bonds ...
  31680 bonds
Finding 1-2 1-3 1-4 neighbors ...
  special bond factors lj:   0          1          1         
  special bond factors coul: 0          1          1         
  2 = max # of 1-2 neighbors
  2 = max # of special neighbors
  special bonds CPU = 0.0133619 secs
  read_data CPU = 0.301984 secs
Replicating atoms ...
  orthogonal box = (-16.796 -16.796 -16.796) to (117.572 117.572 117.572)
  2 by 2 by 4 MPI processor grid
  2048000 atoms
  2027520 bonds
Finding 1-2 1-3 1-4 neighbors ...
  special bond factors lj:   0          1          1         
  special bond factors coul: 0          1          1         
  2 = max # of 1-2 neighbors
  2 = max # of special neighbors
  special bonds CPU = 0.217745 secs
  replicate CPU = 0.38834 secs
Neighbor list info ...
  update every 1 steps, delay 1 steps, check yes
  max neighbors/atom: 2000, page size: 100000
  master list distance cutoff = 1.52
  ghost atom cutoff = 1.52
  binsize = 0.76, bins = 177 177 177
  1 neighbor lists, perpetual/occasional/extra = 1 0 0
  (1) pair lj/cut, perpetual
      attributes: half, newton on
      pair build: half/bin/newton
      stencil: half/bin/3d/newton
      bin: standard
Setting up Verlet run ...
  Unit style    : lj
  Current step  : 0
  Time step     : 0.012
WARNING: Communication cutoff 1.52 is shorter than a bond length based estimate of 1.855. This may lead to errors. (src/comm.cpp:686)
Per MPI rank memory allocation (min/avg/max) = 50.41 | 50.41 | 50.41 Mbytes
Step Temp E_pair E_mol TotEng Press 
       0   0.97026787   0.44484087    20.494523    22.394765    4.6721833 
[MO833] Paramount Iteration,3,1,0.035958,1.078775
[MO833] Paramount Iteration,13,1,0.035947,1.078525
[MO833] Paramount Iteration,2,1,0.036201,1.079020
[MO833] Paramount Iteration,7,1,0.036191,1.078834
[MO833] Paramount Iteration,5,1,0.036281,1.078946
[MO833] Paramount Iteration,6,1,0.036368,1.079007
[MO833] Paramount Iteration,4,1,0.036452,1.079096
[MO833] Paramount Iteration,11,1,0.036475,1.079091
[MO833] Paramount Iteration,12,1,0.036467,1.079045
[MO833] Paramount Iteration,15,1,0.036436,1.079051
[MO833] Paramount Iteration,14,1,0.036561,1.079176
[MO833] Paramount Iteration,10,1,0.036677,1.079293
[MO833] Paramount Iteration,9,1,0.036663,1.078278
[MO833] Paramount Iteration,8,1,0.036763,1.078380
[MO833] Paramount Iteration,0,1,0.037069,1.078066
[MO833] Paramount Iteration,1,1,0.037479,1.078476
[MO833] Paramount Iteration,7,2,0.037074,1.115978
[MO833] Paramount Iteration,3,2,0.037505,1.116361
[MO833] Paramount Iteration,2,2,0.037352,1.116424
[MO833] Paramount Iteration,15,2,0.037008,1.116144
[MO833] Paramount Iteration,6,2,0.037319,1.116389
[MO833] Paramount Iteration,13,2,0.037716,1.116318
[MO833] Paramount Iteration,4,2,0.037279,1.116423
[MO833] Paramount Iteration,12,2,0.037274,1.116368
[MO833] Paramount Iteration,5,2,0.037584,1.116611
[MO833] Paramount Iteration,14,2,0.037310,1.116543
[MO833] Paramount Iteration,11,2,0.037451,1.116624
[MO833] Paramount Iteration,8,2,0.037194,1.115643
[MO833] Paramount Iteration,10,2,0.037439,1.116794
[MO833] Paramount Iteration,9,2,0.037525,1.115885
[MO833] Paramount Iteration,0,2,0.037220,1.115354
[MO833] Paramount Iteration,1,2,0.037459,1.116022
[MO833] Paramount Iteration,13,3,0.038382,1.154774
[MO833] Paramount Iteration,3,3,0.038915,1.155349
[MO833] Paramount Iteration,2,3,0.038942,1.155397
[MO833] Paramount Iteration,5,3,0.038545,1.155196
[MO833] Paramount Iteration,6,3,0.038827,1.155272
[MO833] Paramount Iteration,7,3,0.039303,1.155344
[MO833] Paramount Iteration,12,3,0.039037,1.155414
[MO833] Paramount Iteration,4,3,0.039028,1.155515
[MO833] Paramount Iteration,14,3,0.038850,1.155440
[MO833] Paramount Iteration,10,3,0.038754,1.155592
[MO833] Paramount Iteration,11,3,0.038917,1.155619
[MO833] Paramount Iteration,9,3,0.038717,1.154650
[MO833] Paramount Iteration,15,3,0.039414,1.155654
[MO833] Paramount Iteration,8,3,0.039019,1.154734
[MO833] Paramount Iteration,0,3,0.038811,1.154222
[MO833] Paramount Iteration,1,3,0.038404,1.154503
[MO833] Paramount Iteration,3,4,0.189141,1.344560
[MO833] Paramount Iteration,4,4,0.188896,1.344456
[MO833] Paramount Iteration,7,4,0.189104,1.344482
[MO833] Paramount Iteration,13,4,0.189580,1.344418
[MO833] Paramount Iteration,2,4,0.189331,1.344759
[MO833] Paramount Iteration,15,4,0.188817,1.344530
[MO833] Paramount Iteration,5,4,0.189441,1.344721
[MO833] Paramount Iteration,6,4,0.189403,1.344758
[MO833] Paramount Iteration,11,4,0.189075,1.344704
[MO833] Paramount Iteration,12,4,0.189288,1.344744
[MO833] Paramount Iteration,14,4,0.189303,1.344823
[MO833] Paramount Iteration,0,4,0.189020,1.343301
[MO833] Paramount Iteration,8,4,0.189116,1.343886
[MO833] Paramount Iteration,10,4,0.189317,1.345010
[MO833] Paramount Iteration,9,4,0.189425,1.344166
[MO833] Paramount Iteration,1,4,0.189477,1.344061
[MO833] Paramount Iteration,13,5,0.041689,1.386135
[MO833] Paramount Iteration,3,5,0.041953,1.386542
[MO833] Paramount Iteration,2,5,0.041899,1.386691
[MO833] Paramount Iteration,7,5,0.041929,1.386480
[MO833] Paramount Iteration,6,5,0.041850,1.386628
[MO833] Paramount Iteration,5,5,0.041901,1.386640
[MO833] Paramount Iteration,12,5,0.041860,1.386638
[MO833] Paramount Iteration,15,5,0.041969,1.386589
[MO833] Paramount Iteration,4,5,0.042124,1.386646
[MO833] Paramount Iteration,14,5,0.041838,1.386680
[MO833] Paramount Iteration,11,5,0.042105,1.386840
[MO833] Paramount Iteration,0,5,0.042008,1.385366
[MO833] Paramount Iteration,10,5,0.041990,1.387042
[MO833] Paramount Iteration,9,5,0.041883,1.386072
[MO833] Paramount Iteration,8,5,0.042216,1.386182
[MO833] Paramount Iteration,1,5,0.041563,1.385698
[MO833] Paramount Iteration,13,6,0.041881,1.428046
[MO833] Paramount Iteration,2,6,0.041694,1.428415
[MO833] Paramount Iteration,3,6,0.041875,1.428444
[MO833] Paramount Iteration,5,6,0.041798,1.428474
[MO833] Paramount Iteration,7,6,0.041949,1.428499
[MO833] Paramount Iteration,4,6,0.041954,1.428659
[MO833] Paramount Iteration,6,6,0.041984,1.428629
[MO833] Paramount Iteration,15,6,0.041875,1.428558
[MO833] Paramount Iteration,14,6,0.041935,1.428632
[MO833] Paramount Iteration,10,6,0.041631,1.428715
[MO833] Paramount Iteration,0,6,0.041889,1.427277
[MO833] Paramount Iteration,12,6,0.042126,1.428803
[MO833] Paramount Iteration,9,6,0.041699,1.427808
[MO833] Paramount Iteration,11,6,0.042080,1.428951
[MO833] Paramount Iteration,8,6,0.041869,1.428080
[MO833] Paramount Iteration,1,6,0.041881,1.427646
[MO833] Paramount Iteration,3,7,0.041113,1.469565
[MO833] Paramount Iteration,13,7,0.041155,1.469230
[MO833] Paramount Iteration,2,7,0.041187,1.469663
[MO833] Paramount Iteration,6,7,0.040999,1.469645
[MO833] Paramount Iteration,7,7,0.041091,1.469658
[MO833] Paramount Iteration,5,7,0.041278,1.469779
[MO833] Paramount Iteration,14,7,0.041184,1.469832
[MO833] Paramount Iteration,0,7,0.041056,1.468355
[MO833] Paramount Iteration,15,7,0.041268,1.469955
[MO833] Paramount Iteration,4,7,0.041345,1.470034
[MO833] Paramount Iteration,12,7,0.041122,1.469967
[MO833] Paramount Iteration,10,7,0.041229,1.470041
[MO833] Paramount Iteration,11,7,0.041099,1.470072
[MO833] Paramount Iteration,8,7,0.040997,1.469120
[MO833] Paramount Iteration,9,7,0.041258,1.469103
[MO833] Paramount Iteration,1,7,0.041028,1.468741
[MO833] Paramount Iteration,7,8,0.191632,1.661347
[MO833] Paramount Iteration,3,8,0.192105,1.661696
[MO833] Paramount Iteration,4,8,0.191411,1.661480
[MO833] Paramount Iteration,13,8,0.192191,1.661450
[MO833] Paramount Iteration,5,8,0.191836,1.661644
[MO833] Paramount Iteration,2,8,0.192207,1.661915
[MO833] Paramount Iteration,6,8,0.192019,1.661691
[MO833] Paramount Iteration,15,8,0.191658,1.661665
[MO833] Paramount Iteration,0,8,0.191821,1.660194
[MO833] Paramount Iteration,12,8,0.191739,1.661747
[MO833] Paramount Iteration,11,8,0.191776,1.661856
[MO833] Paramount Iteration,14,8,0.192010,1.661870
[MO833] Paramount Iteration,8,8,0.191844,1.661054
[MO833] Paramount Iteration,10,8,0.192039,1.662173
[MO833] Paramount Iteration,9,8,0.192097,1.661231
[MO833] Paramount Iteration,1,8,0.191991,1.660796
[MO833] Paramount Iteration,3,9,0.041867,1.703590
[MO833] Paramount Iteration,7,9,0.042017,1.703431
[MO833] Paramount Iteration,4,9,0.041960,1.703502
[MO833] Paramount Iteration,2,9,0.041852,1.703800
[MO833] Paramount Iteration,13,9,0.042018,1.703496
[MO833] Paramount Iteration,15,9,0.041807,1.703565
[MO833] Paramount Iteration,11,9,0.041755,1.703643
[MO833] Paramount Iteration,6,9,0.042012,1.703723
[MO833] Paramount Iteration,12,9,0.041891,1.703676
[MO833] Paramount Iteration,5,9,0.042132,1.703793
[MO833] Paramount Iteration,14,9,0.041885,1.703776
[MO833] Paramount Iteration,0,9,0.042063,1.702278
[MO833] Paramount Iteration,10,9,0.041668,1.703882
[MO833] Paramount Iteration,8,9,0.041936,1.703067
[MO833] Paramount Iteration,9,9,0.041994,1.703246
[MO833] Paramount Iteration,1,9,0.042021,1.702878
[MO833] Paramount Iteration,13,10,0.041413,1.744937
[MO833] Paramount Iteration,3,10,0.041888,1.745506
[MO833] Paramount Iteration,5,10,0.041626,1.745437
[MO833] Paramount Iteration,7,10,0.041925,1.745425
[MO833] Paramount Iteration,2,10,0.041968,1.745803
[MO833] Paramount Iteration,12,10,0.041892,1.745601
[MO833] Paramount Iteration,4,10,0.042123,1.745690
[MO833] Paramount Iteration,6,10,0.041953,1.745695
[MO833] Paramount Iteration,11,10,0.041949,1.745625
[MO833] Paramount Iteration,15,10,0.041975,1.745626
[MO833] Paramount Iteration,14,10,0.042020,1.745816
[MO833] Paramount Iteration,10,10,0.042046,1.745968
[MO833] Paramount Iteration,9,10,0.041640,1.744909
[MO833] Paramount Iteration,0,10,0.042123,1.744423
[MO833] Paramount Iteration,8,10,0.041968,1.745119
[MO833] Paramount Iteration,1,10,0.041792,1.744734
[MO833] Paramount Iteration,3,11,0.042763,1.788296
[MO833] Paramount Iteration,2,11,0.042584,1.788421
[MO833] Paramount Iteration,7,11,0.042642,1.788131
[MO833] Paramount Iteration,15,11,0.042563,1.788276
[MO833] Paramount Iteration,4,11,0.042634,1.788355
[MO833] Paramount Iteration,13,11,0.043366,1.788331
[MO833] Paramount Iteration,6,11,0.042769,1.788483
[MO833] Paramount Iteration,5,11,0.043166,1.788630
[MO833] Paramount Iteration,12,11,0.042922,1.788561
[MO833] Paramount Iteration,14,11,0.042704,1.788540
[MO833] Paramount Iteration,0,11,0.042635,1.787085
[MO833] Paramount Iteration,11,11,0.042991,1.788648
[MO833] Paramount Iteration,8,11,0.042573,1.787738
[MO833] Paramount Iteration,9,11,0.042907,1.787854
[MO833] Paramount Iteration,10,11,0.042905,1.788915
[MO833] Paramount Iteration,1,11,0.042948,1.787747
[MO833] Paramount Iteration,7,12,0.193288,1.981500
[MO833] Paramount Iteration,3,12,0.193709,1.982031
[MO833] Paramount Iteration,4,12,0.193436,1.981853
[MO833] Paramount Iteration,6,12,0.193372,1.981874
[MO833] Paramount Iteration,15,12,0.193433,1.981797
[MO833] Paramount Iteration,2,12,0.193740,1.982193
[MO833] Paramount Iteration,14,12,0.193446,1.982010
[MO833] Paramount Iteration,13,12,0.193701,1.982061
[MO833] Paramount Iteration,0,12,0.193490,1.980599
[MO833] Paramount Iteration,5,12,0.193590,1.982238
[MO833] Paramount Iteration,11,12,0.193546,1.982224
[MO833] Paramount Iteration,12,12,0.193653,1.982252
[MO833] Paramount Iteration,8,12,0.193611,1.981432
[MO833] Paramount Iteration,10,12,0.193563,1.982519
[MO833] Paramount Iteration,9,12,0.193730,1.981602
[MO833] Paramount Iteration,1,12,0.193522,1.981331
[MO833] Paramount Iteration,3,13,0.042350,2.024409
[MO833] Paramount Iteration,13,13,0.042076,2.024166
[MO833] Paramount Iteration,2,13,0.042247,2.024471
[MO833] Paramount Iteration,7,13,0.042764,2.024329
[MO833] Paramount Iteration,15,13,0.042421,2.024306
[MO833] Paramount Iteration,6,13,0.042531,2.024425
[MO833] Paramount Iteration,14,13,0.042430,2.024459
[MO833] Paramount Iteration,4,13,0.042696,2.024616
[MO833] Paramount Iteration,9,13,0.041957,2.023603
[MO833] Paramount Iteration,5,13,0.042417,2.024674
[MO833] Paramount Iteration,0,13,0.042547,2.023162
[MO833] Paramount Iteration,10,13,0.042187,2.024747
[MO833] Paramount Iteration,12,13,0.042407,2.024731
[MO833] Paramount Iteration,11,13,0.042516,2.024772
[MO833] Paramount Iteration,8,13,0.042266,2.023780
[MO833] Paramount Iteration,1,13,0.041973,2.023366
[MO833] Paramount Iteration,3,14,0.042630,2.067065
[MO833] Paramount Iteration,7,14,0.042457,2.066847
[MO833] Paramount Iteration,2,14,0.042881,2.067373
[MO833] Paramount Iteration,4,14,0.042462,2.067155
[MO833] Paramount Iteration,15,14,0.042794,2.067165
[MO833] Paramount Iteration,6,14,0.042829,2.067272
[MO833] Paramount Iteration,8,14,0.042522,2.066347
[MO833] Paramount Iteration,12,14,0.042586,2.067356
[MO833] Paramount Iteration,14,14,0.042930,2.067410
[MO833] Paramount Iteration,13,14,0.043163,2.067358
[MO833] Paramount Iteration,0,14,0.042669,2.065854
[MO833] Paramount Iteration,11,14,0.042713,2.067493
[MO833] Paramount Iteration,5,14,0.042946,2.067628
[MO833] Paramount Iteration,9,14,0.043045,2.066750
[MO833] Paramount Iteration,10,14,0.043069,2.067918
[MO833] Paramount Iteration,1,14,0.043243,2.066672
[MO833] Paramount Iteration,7,15,0.043036,2.109949
[MO833] Paramount Iteration,3,15,0.043271,2.110362
[MO833] Paramount Iteration,15,15,0.043104,2.110355
[MO833] Paramount Iteration,4,15,0.043229,2.110455
[MO833] Paramount Iteration,6,15,0.043231,2.110523
[MO833] Paramount Iteration,2,15,0.043366,2.110774
[MO833] Paramount Iteration,5,15,0.043047,2.110693
[MO833] Paramount Iteration,11,15,0.043102,2.110630
[MO833] Paramount Iteration,0,15,0.043282,2.109155
[MO833] Paramount Iteration,13,15,0.043395,2.110773
[MO833] Paramount Iteration,8,15,0.043376,2.109799
[MO833] Paramount Iteration,14,15,0.043386,2.110818
[MO833] Paramount Iteration,12,15,0.043582,2.111020
[MO833] Paramount Iteration,10,15,0.043171,2.111138
[MO833] Paramount Iteration,9,15,0.043484,2.110280
[MO833] Paramount Iteration,1,15,0.043367,2.110104
[MO833] Paramount Iteration,3,16,0.196969,2.307358
[MO833] Paramount Iteration,7,16,0.197291,2.307299
[MO833] Paramount Iteration,4,16,0.196906,2.307428
[MO833] Paramount Iteration,0,16,0.196850,2.306029
[MO833] Paramount Iteration,12,16,0.196496,2.307553
[MO833] Paramount Iteration,8,16,0.196722,2.306604
[MO833] Paramount Iteration,15,16,0.197186,2.307629
[MO833] Paramount Iteration,2,16,0.197122,2.307931
[MO833] Paramount Iteration,6,16,0.197264,2.307808
[MO833] Paramount Iteration,11,16,0.197022,2.307687
[MO833] Paramount Iteration,13,16,0.196865,2.307668
[MO833] Paramount Iteration,5,16,0.197239,2.307965
[MO833] Paramount Iteration,14,16,0.197212,2.308052
[MO833] Paramount Iteration,9,16,0.196786,2.307118
[MO833] Paramount Iteration,10,16,0.197020,2.308204
[MO833] Paramount Iteration,1,16,0.196900,2.307070
[MO833] Paramount Iteration,7,17,0.042975,2.350337
[MO833] Paramount Iteration,3,17,0.043211,2.350597
[MO833] Paramount Iteration,4,17,0.042991,2.350485
[MO833] Paramount Iteration,2,17,0.042961,2.350930
[MO833] Paramount Iteration,5,17,0.042812,2.350796
[MO833] Paramount Iteration,12,17,0.043071,2.350705
[MO833] Paramount Iteration,6,17,0.042973,2.350801
[MO833] Paramount Iteration,13,17,0.043039,2.350726
[MO833] Paramount Iteration,15,17,0.043012,2.350744
[MO833] Paramount Iteration,0,17,0.043243,2.349298
[MO833] Paramount Iteration,11,17,0.043151,2.350871
[MO833] Paramount Iteration,8,17,0.043220,2.349898
[MO833] Paramount Iteration,14,17,0.043019,2.351095
[MO833] Paramount Iteration,10,17,0.043051,2.351301
[MO833] Paramount Iteration,9,17,0.043166,2.350328
[MO833] Paramount Iteration,1,17,0.042819,2.349962
[MO833] Paramount Iteration,3,18,0.042277,2.392901
[MO833] Paramount Iteration,13,18,0.041997,2.392730
[MO833] Paramount Iteration,2,18,0.042148,2.393115
[MO833] Paramount Iteration,4,18,0.042345,2.392890
[MO833] Paramount Iteration,7,18,0.042516,2.392919
[MO833] Paramount Iteration,6,18,0.042123,2.392944
[MO833] Paramount Iteration,12,18,0.042169,2.392951
[MO833] Paramount Iteration,5,18,0.042260,2.393074
[MO833] Paramount Iteration,8,18,0.042189,2.392117
[MO833] Paramount Iteration,11,18,0.042261,2.393166
[MO833] Paramount Iteration,0,18,0.042369,2.391690
[MO833] Paramount Iteration,10,18,0.042000,2.393362
[MO833] Paramount Iteration,14,18,0.042238,2.393356
[MO833] Paramount Iteration,9,18,0.042069,2.392438
[MO833] Paramount Iteration,15,18,0.042521,2.393359
[MO833] Paramount Iteration,1,18,0.042172,2.392194
[MO833] Paramount Iteration,3,19,0.043026,2.435954
[MO833] Paramount Iteration,2,19,0.043106,2.436253
[MO833] Paramount Iteration,4,19,0.043093,2.436041
[MO833] Paramount Iteration,7,19,0.043007,2.435994
[MO833] Paramount Iteration,13,19,0.043263,2.436022
[MO833] Paramount Iteration,5,19,0.043084,2.436175
[MO833] Paramount Iteration,11,19,0.042983,2.436181
[MO833] Paramount Iteration,12,19,0.043241,2.436225
[MO833] Paramount Iteration,15,19,0.042805,2.436276
[MO833] Paramount Iteration,6,19,0.043531,2.436483
[MO833] Paramount Iteration,8,19,0.043324,2.435472
[MO833] Paramount Iteration,10,19,0.043143,2.436543
[MO833] Paramount Iteration,0,19,0.043243,2.434957
[MO833] Paramount Iteration,14,19,0.043284,2.436675
[MO833] Paramount Iteration,9,19,0.043237,2.435716
[MO833] Paramount Iteration,1,19,0.043176,2.435440
[MO833] Paramount Iteration,3,20,0.197994,2.633973
[MO833] Paramount Iteration,7,20,0.197700,2.633762
[MO833] Paramount Iteration,4,20,0.197882,2.633981
[MO833] Paramount Iteration,2,20,0.197945,2.634232
[MO833] Paramount Iteration,5,20,0.198019,2.634211
[MO833] Paramount Iteration,11,20,0.197908,2.634121
[MO833] Paramount Iteration,13,20,0.198036,2.634086
[MO833] Paramount Iteration,8,20,0.197621,2.633125
[MO833] Paramount Iteration,15,20,0.197781,2.634145
[MO833] Paramount Iteration,6,20,0.197784,2.634287
[MO833] Paramount Iteration,0,20,0.197655,2.632638
[MO833] Paramount Iteration,12,20,0.198061,2.634319
[MO833] Paramount Iteration,10,20,0.197844,2.634437
[MO833] Paramount Iteration,14,20,0.197839,2.634536
[MO833] Paramount Iteration,9,20,0.197841,2.633598
[MO833] Paramount Iteration,1,20,0.197884,2.633388
[MO833] Paramount Iteration,3,21,0.043759,2.677758
[MO833] Paramount Iteration,4,21,0.043797,2.677841
[MO833] Paramount Iteration,7,21,0.043998,2.677828
[MO833] Paramount Iteration,2,21,0.043895,2.678161
[MO833] Paramount Iteration,5,21,0.043995,2.678225
[MO833] Paramount Iteration,11,21,0.044008,2.678162
[MO833] Paramount Iteration,6,21,0.043937,2.678246
[MO833] Paramount Iteration,12,21,0.043814,2.678169
[MO833] Paramount Iteration,0,21,0.043995,2.676651
[MO833] Paramount Iteration,13,21,0.044073,2.678190
[MO833] Paramount Iteration,8,21,0.044125,2.677280
[MO833] Paramount Iteration,15,21,0.044116,2.678361
[MO833] Paramount Iteration,10,21,0.044068,2.678556
[MO833] Paramount Iteration,9,21,0.044074,2.677717
[MO833] Paramount Iteration,14,21,0.044107,2.678668
[MO833] Paramount Iteration,1,21,0.044004,2.677457
[MO833] Paramount Iteration,3,22,0.043831,2.721616
[MO833] Paramount Iteration,7,22,0.043611,2.721504
[MO833] Paramount Iteration,4,22,0.043604,2.721502
[MO833] Paramount Iteration,2,22,0.043706,2.721902
[MO833] Paramount Iteration,5,22,0.043529,2.721772
[MO833] Paramount Iteration,0,22,0.043478,2.720156
[MO833] Paramount Iteration,13,22,0.043538,2.721736
[MO833] Paramount Iteration,6,22,0.043613,2.721879
[MO833] Paramount Iteration,11,22,0.043648,2.721839
[MO833] Paramount Iteration,12,22,0.043614,2.721852
[MO833] Paramount Iteration,8,22,0.043586,2.720895
[MO833] Paramount Iteration,15,22,0.043519,2.721980
[MO833] Paramount Iteration,10,22,0.043569,2.722167
[MO833] Paramount Iteration,9,22,0.043400,2.721161
[MO833] Paramount Iteration,14,22,0.043586,2.722276
[MO833] Paramount Iteration,1,22,0.043322,2.720844
[MO833] Paramount Iteration,3,23,0.043489,2.765131
[MO833] Paramount Iteration,2,23,0.043331,2.765265
[MO833] Paramount Iteration,7,23,0.043575,2.765143
[MO833] Paramount Iteration,13,23,0.043425,2.765189
[MO833] Paramount Iteration,4,23,0.043777,2.765334
[MO833] Paramount Iteration,5,23,0.043610,2.765399
[MO833] Paramount Iteration,6,23,0.043513,2.765412
[MO833] Paramount Iteration,11,23,0.043503,2.765372
[MO833] Paramount Iteration,12,23,0.043598,2.765497
[MO833] Paramount Iteration,15,23,0.043400,2.765482
[MO833] Paramount Iteration,8,23,0.043682,2.764606
[MO833] Paramount Iteration,0,23,0.043969,2.764150
[MO833] Paramount Iteration,10,23,0.043563,2.765771
[MO833] Paramount Iteration,9,23,0.043520,2.764720
[MO833] Paramount Iteration,14,23,0.043492,2.765791
[MO833] Paramount Iteration,1,23,0.043803,2.764706
[MO833] Paramount Iteration,4,24,0.200134,2.965520
[MO833] Paramount Iteration,3,24,0.200684,2.965842
[MO833] Paramount Iteration,7,24,0.200535,2.965743
[MO833] Paramount Iteration,2,24,0.200795,2.966094
[MO833] Paramount Iteration,12,24,0.200297,2.965842
[MO833] Paramount Iteration,0,24,0.200167,2.964338
[MO833] Paramount Iteration,5,24,0.200581,2.966006
[MO833] Paramount Iteration,6,24,0.200526,2.965958
[MO833] Paramount Iteration,13,24,0.200632,2.965850
[MO833] Paramount Iteration,8,24,0.200306,2.964943
[MO833] Paramount Iteration,15,24,0.200487,2.966067
[MO833] Paramount Iteration,11,24,0.200800,2.966205
[MO833] Paramount Iteration,14,24,0.200429,2.966242
[MO833] Paramount Iteration,10,24,0.200691,2.966503
[MO833] Paramount Iteration,9,24,0.200727,2.965510
[MO833] Paramount Iteration,1,24,0.200517,2.965287
[MO833] Paramount Iteration,3,25,0.043441,3.009311
[MO833] Paramount Iteration,2,25,0.043351,3.009479
[MO833] Paramount Iteration,7,25,0.043457,3.009263
[MO833] Paramount Iteration,4,25,0.043700,3.009282
[MO833] Paramount Iteration,5,25,0.043490,3.009514
[MO833] Paramount Iteration,6,25,0.043511,3.009489
[MO833] Paramount Iteration,15,25,0.043261,3.009428
[MO833] Paramount Iteration,13,25,0.043589,3.009457
[MO833] Paramount Iteration,0,25,0.043618,3.007974
[MO833] Paramount Iteration,11,25,0.043387,3.009624
[MO833] Paramount Iteration,12,25,0.043778,3.009704
[MO833] Paramount Iteration,14,25,0.043490,3.009754
[MO833] Paramount Iteration,10,25,0.043300,3.009860
[MO833] Paramount Iteration,8,25,0.043841,3.008815
[MO833] Paramount Iteration,9,25,0.043274,3.008833
[MO833] Paramount Iteration,1,25,0.043103,3.008459
[MO833] Paramount Iteration,3,26,0.043370,3.052707
[MO833] Paramount Iteration,7,26,0.043179,3.052505
[MO833] Paramount Iteration,4,26,0.043251,3.052591
[MO833] Paramount Iteration,2,26,0.043388,3.052898
[MO833] Paramount Iteration,6,26,0.043288,3.052797
[MO833] Paramount Iteration,5,26,0.043355,3.052886
[MO833] Paramount Iteration,13,26,0.043287,3.052772
[MO833] Paramount Iteration,8,26,0.043065,3.051913
[MO833] Paramount Iteration,15,26,0.043350,3.052875
[MO833] Paramount Iteration,0,26,0.043387,3.051380
[MO833] Paramount Iteration,11,26,0.043305,3.052961
[MO833] Paramount Iteration,12,26,0.043222,3.052962
[MO833] Paramount Iteration,9,26,0.043238,3.052168
[MO833] Paramount Iteration,10,26,0.043299,3.053197
[MO833] Paramount Iteration,14,26,0.043360,3.053135
[MO833] Paramount Iteration,1,26,0.043453,3.051975
[MO833] Paramount Iteration,3,27,0.043584,3.096319
[MO833] Paramount Iteration,7,27,0.043607,3.096178
[MO833] Paramount Iteration,4,27,0.043726,3.096377
[MO833] Paramount Iteration,2,27,0.043703,3.096633
[MO833] Paramount Iteration,13,27,0.043635,3.096436
[MO833] Paramount Iteration,5,27,0.043757,3.096660
[MO833] Paramount Iteration,6,27,0.043830,3.096645
[MO833] Paramount Iteration,12,27,0.043613,3.096610
[MO833] Paramount Iteration,15,27,0.043616,3.096590
[MO833] Paramount Iteration,0,27,0.043775,3.095172
[MO833] Paramount Iteration,11,27,0.043756,3.096749
[MO833] Paramount Iteration,8,27,0.043808,3.095751
[MO833] Paramount Iteration,14,27,0.043830,3.096986
[MO833] Paramount Iteration,9,27,0.043863,3.096067
[MO833] Paramount Iteration,10,27,0.043903,3.097137
[MO833] Paramount Iteration,1,27,0.043909,3.095952
[MO833] Paramount Iteration,3,28,0.200197,3.296543
[MO833] Paramount Iteration,7,28,0.200125,3.296380
[MO833] Paramount Iteration,2,28,0.199998,3.296664
[MO833] Paramount Iteration,13,28,0.199971,3.296435
[MO833] Paramount Iteration,5,28,0.199901,3.296578
[MO833] Paramount Iteration,6,28,0.199945,3.296610
[MO833] Paramount Iteration,4,28,0.200261,3.296697
[MO833] Paramount Iteration,11,28,0.199903,3.296681
[MO833] Paramount Iteration,15,28,0.199962,3.296649
[MO833] Paramount Iteration,10,28,0.199674,3.296853
[MO833] Paramount Iteration,8,28,0.200047,3.295832
[MO833] Paramount Iteration,9,28,0.199723,3.295834
[MO833] Paramount Iteration,14,28,0.199929,3.296936
[MO833] Paramount Iteration,0,28,0.200209,3.295405
[MO833] Paramount Iteration,12,28,0.200352,3.296993
[MO833] Paramount Iteration,1,28,0.199670,3.295687
[MO833] Paramount Iteration,3,29,0.044346,3.340917
[MO833] Paramount Iteration,5,29,0.044141,3.340746
[MO833] Paramount Iteration,13,29,0.044203,3.340668
[MO833] Paramount Iteration,7,29,0.044380,3.340827
[MO833] Paramount Iteration,4,29,0.044201,3.340929
[MO833] Paramount Iteration,2,29,0.044448,3.341143
[MO833] Paramount Iteration,6,29,0.044365,3.340992
[MO833] Paramount Iteration,11,29,0.044519,3.341229
[MO833] Paramount Iteration,15,29,0.044501,3.341267
[MO833] Paramount Iteration,9,29,0.044398,3.340321
[MO833] Paramount Iteration,10,29,0.044507,3.341395
[MO833] Paramount Iteration,8,29,0.044579,3.340437
[MO833] Paramount Iteration,14,29,0.044435,3.341393
[MO833] Paramount Iteration,12,29,0.044409,3.341447
[MO833] Paramount Iteration,0,29,0.044526,3.339948
[MO833] Paramount Iteration,1,29,0.044383,3.340139
[MO833] Paramount Iteration,3,30,0.044161,3.385105
[MO833] Paramount Iteration,2,30,0.044120,3.385296
[MO833] Paramount Iteration,7,30,0.044206,3.385096
[MO833] Paramount Iteration,4,30,0.044194,3.385153
[MO833] Paramount Iteration,5,30,0.044402,3.385173
[MO833] Paramount Iteration,15,30,0.043767,3.385125
[MO833] Paramount Iteration,13,30,0.044477,3.385177
[MO833] Paramount Iteration,6,30,0.044340,3.385350
[MO833] Paramount Iteration,11,30,0.044060,3.385319
[MO833] Paramount Iteration,14,30,0.043914,3.385325
[MO833] Paramount Iteration,0,30,0.043867,3.383834
[MO833] Paramount Iteration,10,30,0.044091,3.385523
[MO833] Paramount Iteration,12,30,0.044147,3.385642
[MO833] Paramount Iteration,8,30,0.044215,3.384671
[MO833] Paramount Iteration,9,30,0.044223,3.384644
[MO833] Paramount Iteration,1,30,0.044014,3.384220
[MO833] Paramount Iteration,2,31,0.043219,3.428546
[MO833] Paramount Iteration,3,31,0.043572,3.428703
[MO833] Paramount Iteration,5,31,0.043283,3.428476
[MO833] Paramount Iteration,13,31,0.043343,3.428552
[MO833] Paramount Iteration,4,31,0.043543,3.428751
[MO833] Paramount Iteration,10,31,0.043139,3.428695
[MO833] Paramount Iteration,6,31,0.043431,3.428801
[MO833] Paramount Iteration,7,31,0.043710,3.428870
[MO833] Paramount Iteration,14,31,0.043457,3.428803
[MO833] Paramount Iteration,1,31,0.042973,3.427245
[MO833] Paramount Iteration,0,31,0.043525,3.427378
[MO833] Paramount Iteration,9,31,0.043272,3.428018
[MO833] Paramount Iteration,15,31,0.043816,3.429030
[MO833] Paramount Iteration,11,31,0.043746,3.429095
[MO833] Paramount Iteration,8,31,0.043545,3.428224
[MO833] Paramount Iteration,12,31,0.043546,3.429232
[MO833] Paramount Iteration,7,32,0.202420,3.631314
[MO833] Paramount Iteration,13,32,0.202615,3.631198
[MO833] Paramount Iteration,3,32,0.202850,3.631571
[MO833] Paramount Iteration,15,32,0.202405,3.631470
[MO833] Paramount Iteration,5,32,0.203099,3.631601
[MO833] Paramount Iteration,6,32,0.202811,3.631641
[MO833] Paramount Iteration,2,32,0.203302,3.631918
[MO833] Paramount Iteration,14,32,0.202834,3.631665
[MO833] Paramount Iteration,4,32,0.202972,3.631755
[MO833] Paramount Iteration,11,32,0.202585,3.631701
[MO833] Paramount Iteration,12,32,0.202564,3.631839
[MO833] Paramount Iteration,8,32,0.202697,3.630943
[MO833] Paramount Iteration,9,32,0.202811,3.630934
[MO833] Paramount Iteration,10,32,0.203347,3.632131
[MO833] Paramount Iteration,0,32,0.203191,3.630600
[MO833] Paramount Iteration,1,32,0.203531,3.630929
[MO833] Paramount Iteration,13,33,0.044923,3.676149
[MO833] Paramount Iteration,3,33,0.044949,3.676550
[MO833] Paramount Iteration,5,33,0.044852,3.676479
[MO833] Paramount Iteration,2,33,0.044791,3.676744
[MO833] Paramount Iteration,7,33,0.045242,3.676625
[MO833] Paramount Iteration,4,33,0.044930,3.676717
[MO833] Paramount Iteration,6,33,0.045046,3.676706
[MO833] Paramount Iteration,11,33,0.044996,3.676729
[MO833] Paramount Iteration,15,33,0.045286,3.676828
[MO833] Paramount Iteration,14,33,0.045185,3.676870
[MO833] Paramount Iteration,10,33,0.044784,3.676958
[MO833] Paramount Iteration,9,33,0.044932,3.675952
[MO833] Paramount Iteration,12,33,0.045089,3.676967
[MO833] Paramount Iteration,8,33,0.045123,3.676082
[MO833] Paramount Iteration,0,33,0.044994,3.675648
[MO833] Paramount Iteration,1,33,0.044968,3.675961
[MO833] Paramount Iteration,3,34,0.045441,3.722018
[MO833] Paramount Iteration,7,34,0.045180,3.721867
[MO833] Paramount Iteration,11,34,0.045237,3.721996
[MO833] Paramount Iteration,4,34,0.045322,3.722068
[MO833] Paramount Iteration,15,34,0.045077,3.722011
[MO833] Paramount Iteration,2,34,0.045735,3.722510
[MO833] Paramount Iteration,6,34,0.045574,3.722300
[MO833] Paramount Iteration,5,34,0.045858,3.722362
[MO833] Paramount Iteration,13,34,0.046146,3.722326
[MO833] Paramount Iteration,8,34,0.045301,3.721402
[MO833] Paramount Iteration,0,34,0.045137,3.720847
[MO833] Paramount Iteration,14,34,0.045558,3.722438
[MO833] Paramount Iteration,12,34,0.045481,3.722490
[MO833] Paramount Iteration,10,34,0.045579,3.722574
[MO833] Paramount Iteration,9,34,0.045877,3.721929
[MO833] Paramount Iteration,1,34,0.045853,3.721880
[MO833] Paramount Iteration,3,35,0.044810,3.766854
[MO833] Paramount Iteration,7,35,0.044806,3.766737
[MO833] Paramount Iteration,11,35,0.044790,3.766816
[MO833] Paramount Iteration,4,35,0.044923,3.767045
[MO833] Paramount Iteration,2,35,0.044827,3.767370
[MO833] Paramount Iteration,15,35,0.045012,3.767114
[MO833] Paramount Iteration,6,35,0.044962,3.767282
[MO833] Paramount Iteration,5,35,0.044997,3.767378
[MO833] Paramount Iteration,0,35,0.044865,3.765762
[MO833] Paramount Iteration,13,35,0.044981,3.767335
[MO833] Paramount Iteration,8,35,0.044966,3.766399
[MO833] Paramount Iteration,10,35,0.044853,3.767466
[MO833] Paramount Iteration,12,35,0.045010,3.767533
[MO833] Paramount Iteration,14,35,0.045165,3.767625
[MO833] Paramount Iteration,9,35,0.044975,3.766951
[MO833] Paramount Iteration,1,35,0.044935,3.766889
[MO833] Paramount Iteration,3,36,0.201711,3.968592
[MO833] Paramount Iteration,7,36,0.201702,3.968502
[MO833] Paramount Iteration,11,36,0.201881,3.968727
[MO833] Paramount Iteration,15,36,0.201477,3.968693
[MO833] Paramount Iteration,2,36,0.201640,3.969047
[MO833] Paramount Iteration,4,36,0.201739,3.968840
[MO833] Paramount Iteration,5,36,0.201732,3.969126
[MO833] Paramount Iteration,6,36,0.201798,3.969100
[MO833] Paramount Iteration,10,36,0.201626,3.969133
[MO833] Paramount Iteration,8,36,0.201695,3.968129
[MO833] Paramount Iteration,14,36,0.201491,3.969140
[MO833] Paramount Iteration,12,36,0.201622,3.969193
[MO833] Paramount Iteration,0,36,0.201858,3.967675
[MO833] Paramount Iteration,13,36,0.201849,3.969214
[MO833] Paramount Iteration,9,36,0.201380,3.968373
[MO833] Paramount Iteration,1,36,0.201290,3.968244
[MO833] Paramount Iteration,3,37,0.045005,4.013625
[MO833] Paramount Iteration,4,37,0.044884,4.013786
[MO833] Paramount Iteration,11,37,0.045003,4.013758
[MO833] Paramount Iteration,15,37,0.044923,4.013712
[MO833] Paramount Iteration,2,37,0.044933,4.014017
[MO833] Paramount Iteration,5,37,0.044670,4.013814
[MO833] Paramount Iteration,7,37,0.045242,4.013809
[MO833] Paramount Iteration,14,37,0.044651,4.013811
[MO833] Paramount Iteration,13,37,0.044587,4.013810
[MO833] Paramount Iteration,6,37,0.044856,4.013977
[MO833] Paramount Iteration,10,37,0.044917,4.014089
[MO833] Paramount Iteration,8,37,0.045111,4.013271
[MO833] Paramount Iteration,0,37,0.045067,4.012794
[MO833] Paramount Iteration,12,37,0.045104,4.014386
[MO833] Paramount Iteration,9,37,0.045103,4.013516
[MO833] Paramount Iteration,1,37,0.044886,4.013203
[MO833] Paramount Iteration,3,38,0.043894,4.057546
[MO833] Paramount Iteration,15,38,0.043808,4.057598
[MO833] Paramount Iteration,11,38,0.043968,4.057756
[MO833] Paramount Iteration,2,38,0.043987,4.058040
[MO833] Paramount Iteration,7,38,0.043915,4.057794
[MO833] Paramount Iteration,13,38,0.044016,4.057858
[MO833] Paramount Iteration,14,38,0.044143,4.057971
[MO833] Paramount Iteration,4,38,0.044218,4.058061
[MO833] Paramount Iteration,5,38,0.044294,4.058120
[MO833] Paramount Iteration,6,38,0.044139,4.058136
[MO833] Paramount Iteration,0,38,0.043773,4.056622
[MO833] Paramount Iteration,10,38,0.044165,4.058292
[MO833] Paramount Iteration,8,38,0.043966,4.057267
[MO833] Paramount Iteration,12,38,0.043916,4.058360
[MO833] Paramount Iteration,9,38,0.043894,4.057448
[MO833] Paramount Iteration,1,38,0.043916,4.057206
[MO833] Paramount Iteration,13,39,0.042956,4.100844
[MO833] Paramount Iteration,3,39,0.043760,4.101333
[MO833] Paramount Iteration,5,39,0.043076,4.101204
[MO833] Paramount Iteration,2,39,0.043347,4.101421
[MO833] Paramount Iteration,14,39,0.043341,4.101333
[MO833] Paramount Iteration,4,39,0.043390,4.101514
[MO833] Paramount Iteration,10,39,0.043123,4.101456
[MO833] Paramount Iteration,6,39,0.043349,4.101505
[MO833] Paramount Iteration,11,39,0.043705,4.101491
[MO833] Paramount Iteration,15,39,0.043811,4.101476
[MO833] Paramount Iteration,7,39,0.043663,4.101527
[MO833] Paramount Iteration,12,39,0.043163,4.101563
[MO833] Paramount Iteration,9,39,0.043089,4.100570
[MO833] Paramount Iteration,8,39,0.043337,4.100633
[MO833] Paramount Iteration,0,39,0.043433,4.100110
[MO833] Paramount Iteration,1,39,0.043033,4.100301
[MO833] Paramount Iteration,13,40,0.203215,4.304088
[MO833] Paramount Iteration,3,40,0.203340,4.304697
[MO833] Paramount Iteration,5,40,0.203349,4.304579
[MO833] Paramount Iteration,2,40,0.203502,4.304952
[MO833] Paramount Iteration,4,40,0.203312,4.304860
[MO833] Paramount Iteration,7,40,0.203204,4.304801
[MO833] Paramount Iteration,6,40,0.203326,4.304860
[MO833] Paramount Iteration,11,40,0.203361,4.304860
[MO833] Paramount Iteration,12,40,0.203306,4.304909
[MO833] Paramount Iteration,9,40,0.203267,4.303936
[MO833] Paramount Iteration,14,40,0.203569,4.304930
[MO833] Paramount Iteration,8,40,0.203368,4.304009
[MO833] Paramount Iteration,15,40,0.203406,4.304931
[MO833] Paramount Iteration,10,40,0.203539,4.305081
[MO833] Paramount Iteration,0,40,0.203368,4.303537
[MO833] Paramount Iteration,1,40,0.203413,4.303781
[MO833] Paramount Iteration,3,41,0.044394,4.349120
[MO833] Paramount Iteration,5,41,0.044405,4.349011
[MO833] Paramount Iteration,13,41,0.044776,4.348892
[MO833] Paramount Iteration,2,41,0.044429,4.349417
[MO833] Paramount Iteration,4,41,0.044377,4.349269
[MO833] Paramount Iteration,7,41,0.044443,4.349314
[MO833] Paramount Iteration,6,41,0.044560,4.349451
[MO833] Paramount Iteration,11,41,0.044566,4.349455
[MO833] Paramount Iteration,15,41,0.044450,4.349475
[MO833] Paramount Iteration,9,41,0.044458,4.348518
[MO833] Paramount Iteration,14,41,0.044624,4.349581
[MO833] Paramount Iteration,10,41,0.044549,4.349669
[MO833] Paramount Iteration,8,41,0.044632,4.348658
[MO833] Paramount Iteration,0,41,0.044506,4.348100
[MO833] Paramount Iteration,12,41,0.044779,4.349729
[MO833] Paramount Iteration,1,41,0.044519,4.348369
[MO833] Paramount Iteration,13,42,0.044752,4.393675
[MO833] Paramount Iteration,5,42,0.044984,4.394021
[MO833] Paramount Iteration,3,42,0.045117,4.394263
[MO833] Paramount Iteration,2,42,0.044830,4.394284
[MO833] Paramount Iteration,10,42,0.044568,4.394274
[MO833] Paramount Iteration,4,42,0.045119,4.394419
[MO833] Paramount Iteration,6,42,0.044958,4.394424
[MO833] Paramount Iteration,11,42,0.044930,4.394415
[MO833] Paramount Iteration,14,42,0.044782,4.394380
[MO833] Paramount Iteration,7,42,0.045058,4.394447
[MO833] Paramount Iteration,9,42,0.044807,4.393423
[MO833] Paramount Iteration,15,42,0.044857,4.394428
[MO833] Paramount Iteration,8,42,0.044881,4.393558
[MO833] Paramount Iteration,12,42,0.044803,4.394578
[MO833] Paramount Iteration,0,42,0.044986,4.393143
[MO833] Paramount Iteration,1,42,0.044800,4.393233
[MO833] Paramount Iteration,13,43,0.044260,4.437966
[MO833] Paramount Iteration,3,43,0.044023,4.438312
[MO833] Paramount Iteration,2,43,0.044209,4.438547
[MO833] Paramount Iteration,5,43,0.044364,4.438409
[MO833] Paramount Iteration,7,43,0.043894,4.438413
[MO833] Paramount Iteration,4,43,0.044211,4.438663
[MO833] Paramount Iteration,6,43,0.044191,4.438644
[MO833] Paramount Iteration,11,43,0.044167,4.438623
[MO833] Paramount Iteration,15,43,0.044154,4.438592
[MO833] Paramount Iteration,12,43,0.044061,4.438694
[MO833] Paramount Iteration,9,43,0.044259,4.437774
[MO833] Paramount Iteration,14,43,0.044322,4.438783
[MO833] Paramount Iteration,10,43,0.044486,4.438849
[MO833] Paramount Iteration,8,43,0.044281,4.437859
[MO833] Paramount Iteration,0,43,0.044240,4.437439
[MO833] Paramount Iteration,1,43,0.044456,4.437737
[MO833] Paramount Iteration,7,44,0.203339,4.641823
[MO833] Paramount Iteration,3,44,0.203781,4.642120
[MO833] Paramount Iteration,2,44,0.203748,4.642346
[MO833] Paramount Iteration,13,44,0.204113,4.642107
[MO833] Paramount Iteration,4,44,0.203590,4.642283
[MO833] Paramount Iteration,5,44,0.203924,4.642359
[MO833] Paramount Iteration,11,44,0.203661,4.642316
[MO833] Paramount Iteration,6,44,0.203716,4.642380
[MO833] Paramount Iteration,15,44,0.203685,4.642310
[MO833] Paramount Iteration,8,44,0.203503,4.641398
[MO833] Paramount Iteration,9,44,0.203511,4.641375
[MO833] Paramount Iteration,0,44,0.203411,4.640911
[MO833] Paramount Iteration,12,44,0.203794,4.642528
[MO833] Paramount Iteration,10,44,0.203786,4.642688
[MO833] Paramount Iteration,1,44,0.203481,4.641289
[MO833] Paramount Iteration,14,44,0.204011,4.642830
[MO833] Paramount Iteration,3,45,0.045541,4.687688
[MO833] Paramount Iteration,7,45,0.045868,4.687755
[MO833] Paramount Iteration,2,45,0.045667,4.688047
[MO833] Paramount Iteration,4,45,0.045537,4.687885
[MO833] Paramount Iteration,8,45,0.045615,4.687032
[MO833] Paramount Iteration,11,45,0.045756,4.688105
[MO833] Paramount Iteration,5,45,0.045856,4.688232
[MO833] Paramount Iteration,6,45,0.045823,4.688223
[MO833] Paramount Iteration,0,45,0.045645,4.686610
[MO833] Paramount Iteration,12,45,0.045605,4.688172
[MO833] Paramount Iteration,13,45,0.046093,4.688229
[MO833] Paramount Iteration,15,45,0.045849,4.688195
[MO833] Paramount Iteration,10,45,0.045746,4.688478
[MO833] Paramount Iteration,9,45,0.046043,4.687524
[MO833] Paramount Iteration,14,45,0.045797,4.688675
[MO833] Paramount Iteration,1,45,0.046221,4.687621
[MO833] Paramount Iteration,3,46,0.046227,4.733941
[MO833] Paramount Iteration,2,46,0.046014,4.734097
[MO833] Paramount Iteration,7,46,0.046030,4.733854
[MO833] Paramount Iteration,4,46,0.046191,4.734135
[MO833] Paramount Iteration,13,46,0.045782,4.734026
[MO833] Paramount Iteration,5,46,0.045909,4.734160
[MO833] Paramount Iteration,11,46,0.046041,4.734177
[MO833] Paramount Iteration,15,46,0.045969,4.734198
[MO833] Paramount Iteration,6,46,0.046041,4.734283
[MO833] Paramount Iteration,8,46,0.046294,4.733355
[MO833] Paramount Iteration,0,46,0.046131,4.732808
[MO833] Paramount Iteration,10,46,0.045880,4.734427
[MO833] Paramount Iteration,9,46,0.045807,4.733371
[MO833] Paramount Iteration,12,46,0.046221,4.734498
[MO833] Paramount Iteration,14,46,0.045776,4.734500
[MO833] Paramount Iteration,1,46,0.045626,4.733318
[MO833] Paramount Iteration,3,47,0.045122,4.779090
[MO833] Paramount Iteration,2,47,0.045269,4.779400
[MO833] Paramount Iteration,7,47,0.045238,4.779161
[MO833] Paramount Iteration,4,47,0.045206,4.779400
[MO833] Paramount Iteration,11,47,0.045179,4.779389
[MO833] Paramount Iteration,5,47,0.045416,4.779592
[MO833] Paramount Iteration,15,47,0.045264,4.779493
[MO833] Paramount Iteration,6,47,0.045340,4.779644
[MO833] Paramount Iteration,8,47,0.045238,4.778622
[MO833] Paramount Iteration,0,47,0.045283,4.778158
[MO833] Paramount Iteration,13,47,0.045631,4.779688
[MO833] Paramount Iteration,10,47,0.045341,4.779809
[MO833] Paramount Iteration,12,47,0.045384,4.779936
[MO833] Paramount Iteration,9,47,0.045522,4.778970
[MO833] Paramount Iteration,14,47,0.045440,4.779979
[MO833] Paramount Iteration,1,47,0.045475,4.778865
[MO833] Paramount Iteration,3,48,0.208189,4.987305
[MO833] Paramount Iteration,7,48,0.207993,4.987222
[MO833] Paramount Iteration,2,48,0.208099,4.987535
[MO833] Paramount Iteration,13,48,0.207595,4.987313
[MO833] Paramount Iteration,4,48,0.208106,4.987564
[MO833] Paramount Iteration,5,48,0.207981,4.987591
[MO833] Paramount Iteration,15,48,0.208009,4.987533
[MO833] Paramount Iteration,6,48,0.207978,4.987643
[MO833] Paramount Iteration,12,48,0.207631,4.987607
[MO833] Paramount Iteration,8,48,0.207958,4.986611
[MO833] Paramount Iteration,11,48,0.208244,4.987664
[MO833] Paramount Iteration,0,48,0.208076,4.986285
[MO833] Paramount Iteration,9,48,0.207914,4.986922
[MO833] Paramount Iteration,10,48,0.208143,4.987996
[MO833] Paramount Iteration,14,48,0.207931,4.987954
[MO833] Paramount Iteration,1,48,0.207906,4.986840
[MO833] Paramount Iteration,13,49,0.045859,5.033199
[MO833] Paramount Iteration,3,49,0.046276,5.033609
[MO833] Paramount Iteration,2,49,0.046218,5.033788
[MO833] Paramount Iteration,5,49,0.046054,5.033659
[MO833] Paramount Iteration,7,49,0.046430,5.033721
[MO833] Paramount Iteration,4,49,0.046190,5.033815
[MO833] Paramount Iteration,6,49,0.046203,5.033866
[MO833] Paramount Iteration,12,49,0.046256,5.033897
[MO833] Paramount Iteration,9,49,0.045956,5.032916
[MO833] Paramount Iteration,15,49,0.046379,5.033945
[MO833] Paramount Iteration,14,49,0.046083,5.034081
[MO833] Paramount Iteration,8,49,0.046510,5.033150
[MO833] Paramount Iteration,10,49,0.046125,5.034162
[MO833] Paramount Iteration,11,49,0.046453,5.034150
[MO833] Paramount Iteration,0,49,0.046329,5.032676
[MO833] Paramount Iteration,1,49,0.046251,5.033157
[MO833] Paramount Iteration,3,50,0.045496,5.079131
[MO833] Paramount Iteration,7,50,0.045488,5.079281
[MO833] Paramount Iteration,4,50,0.045526,5.079371
[MO833] Paramount Iteration,2,50,0.045812,5.079631
[MO833] Paramount Iteration,0,50,0.045276,5.078012
[MO833] Paramount Iteration,5,50,0.045985,5.079671
[MO833] Paramount Iteration,11,50,0.045461,5.079639
[MO833] Paramount Iteration,13,50,0.046409,5.079637
[MO833] Paramount Iteration,6,50,0.045865,5.079749
[MO833] Paramount Iteration,15,50,0.045724,5.079700
[MO833] Paramount Iteration,8,50,0.045598,5.078767
[MO833] Paramount Iteration,12,50,0.045868,5.079802
[MO833] Paramount Iteration,9,50,0.046083,5.079100
[MO833] Paramount Iteration,10,50,0.045899,5.080145
[MO833] Paramount Iteration,1,50,0.045433,5.078663
[MO833] Paramount Iteration,14,50,0.046102,5.080217
[MO833] Paramount Iteration,3,51,0.046280,5.125437
[MO833] Paramount Iteration,4,51,0.046098,5.125527
[MO833] Paramount Iteration,7,51,0.046118,5.125466
[MO833] Paramount Iteration,2,51,0.046208,5.125888
[MO833] Paramount Iteration,0,51,0.046121,5.124192
[MO833] Paramount Iteration,12,51,0.045894,5.125730
[MO833] Paramount Iteration,11,51,0.046125,5.125796
[MO833] Paramount Iteration,13,51,0.046148,5.125811
[MO833] Paramount Iteration,5,51,0.046305,5.125995
[MO833] Paramount Iteration,6,51,0.046220,5.125989
[MO833] Paramount Iteration,8,51,0.046209,5.125009
[MO833] Paramount Iteration,15,51,0.046275,5.126011
[MO833] Paramount Iteration,10,51,0.046084,5.126273
[MO833] Paramount Iteration,14,51,0.046107,5.126377
[MO833] Paramount Iteration,1,51,0.046212,5.124972
[MO833] Paramount Iteration,9,51,0.046405,5.125547
[MO833] Paramount Iteration,13,52,0.205297,5.331124
[MO833] Paramount Iteration,3,52,0.206131,5.331594
[MO833] Paramount Iteration,7,52,0.205851,5.331385
[MO833] Paramount Iteration,5,52,0.205620,5.331634
[MO833] Paramount Iteration,6,52,0.205611,5.331620
[MO833] Paramount Iteration,15,52,0.205587,5.331631
[MO833] Paramount Iteration,2,52,0.205996,5.331917
[MO833] Paramount Iteration,4,52,0.206199,5.331788
[MO833] Paramount Iteration,11,52,0.206007,5.331835
[MO833] Paramount Iteration,14,52,0.205419,5.331842
[MO833] Paramount Iteration,12,52,0.206098,5.331911
[MO833] Paramount Iteration,0,52,0.206153,5.330411
[MO833] Paramount Iteration,9,52,0.205419,5.331014
[MO833] Paramount Iteration,1,52,0.205415,5.330487
[MO833] Paramount Iteration,8,52,0.206130,5.331183
[MO833] Paramount Iteration,10,52,0.205873,5.332190
[MO833] Paramount Iteration,3,53,0.044955,5.376577
[MO833] Paramount Iteration,7,53,0.045101,5.376552
[MO833] Paramount Iteration,2,53,0.045027,5.376978
[MO833] Paramount Iteration,4,53,0.045006,5.376825
[MO833] Paramount Iteration,15,53,0.045227,5.376892
[MO833] Paramount Iteration,11,53,0.045089,5.376958
[MO833] Paramount Iteration,0,53,0.044957,5.375422
[MO833] Paramount Iteration,8,53,0.044795,5.375999
[MO833] Paramount Iteration,6,53,0.045445,5.377085
[MO833] Paramount Iteration,12,53,0.045057,5.377009
[MO833] Paramount Iteration,13,53,0.045879,5.377033
[MO833] Paramount Iteration,5,53,0.045619,5.377279
[MO833] Paramount Iteration,10,53,0.045115,5.377364
[MO833] Paramount Iteration,14,53,0.045516,5.377395
[MO833] Paramount Iteration,9,53,0.045435,5.376555
[MO833] Paramount Iteration,1,53,0.045752,5.376349
[MO833] Paramount Iteration,13,54,0.044215,5.421255
[MO833] Paramount Iteration,3,54,0.044997,5.421601
[MO833] Paramount Iteration,5,54,0.044253,5.421551
[MO833] Paramount Iteration,7,54,0.044960,5.421573
[MO833] Paramount Iteration,2,54,0.044850,5.421862
[MO833] Paramount Iteration,6,54,0.044646,5.421752
[MO833] Paramount Iteration,4,54,0.044951,5.421838
[MO833] Paramount Iteration,15,54,0.044806,5.421731
[MO833] Paramount Iteration,11,54,0.044925,5.421915
[MO833] Paramount Iteration,14,54,0.044540,5.421982
[MO833] Paramount Iteration,9,54,0.044399,5.420997
[MO833] Paramount Iteration,12,54,0.044958,5.422051
[MO833] Paramount Iteration,10,54,0.044712,5.422121
[MO833] Paramount Iteration,8,54,0.045170,5.421201
[MO833] Paramount Iteration,0,54,0.045156,5.420640
[MO833] Paramount Iteration,1,54,0.044471,5.420889
[MO833] Paramount Iteration,3,55,0.044744,5.466414
[MO833] Paramount Iteration,7,55,0.044555,5.466194
[MO833] Paramount Iteration,2,55,0.044628,5.466510
[MO833] Paramount Iteration,6,55,0.044751,5.466521
[MO833] Paramount Iteration,13,55,0.045209,5.466495
[MO833] Paramount Iteration,5,55,0.045072,5.466649
[MO833] Paramount Iteration,15,55,0.044808,5.466569
[MO833] Paramount Iteration,4,55,0.044894,5.466766
[MO833] Paramount Iteration,11,55,0.044755,5.466745
[MO833] Paramount Iteration,10,55,0.044786,5.466965
[MO833] Paramount Iteration,0,55,0.044680,5.465369
[MO833] Paramount Iteration,8,55,0.044762,5.465981
[MO833] Paramount Iteration,14,55,0.044972,5.466993
[MO833] Paramount Iteration,12,55,0.044887,5.466992
[MO833] Paramount Iteration,9,55,0.045067,5.466168
[MO833] Paramount Iteration,1,55,0.044786,5.465741
[MO833] Paramount Iteration,3,56,0.208936,5.675415
[MO833] Paramount Iteration,7,56,0.209174,5.675431
[MO833] Paramount Iteration,11,56,0.208596,5.675420
[MO833] Paramount Iteration,2,56,0.209179,5.675707
[MO833] Paramount Iteration,4,56,0.208900,5.675700
[MO833] Paramount Iteration,6,56,0.209161,5.675702
[MO833] Paramount Iteration,10,56,0.208736,5.675722
[MO833] Paramount Iteration,13,56,0.209117,5.675641
[MO833] Paramount Iteration,5,56,0.209127,5.675819
[MO833] Paramount Iteration,15,56,0.209215,5.675817
[MO833] Paramount Iteration,0,56,0.208886,5.674330
[MO833] Paramount Iteration,12,56,0.208865,5.675900
[MO833] Paramount Iteration,8,56,0.208957,5.675020
[MO833] Paramount Iteration,9,56,0.208866,5.675091
[MO833] Paramount Iteration,14,56,0.209130,5.676169
[MO833] Paramount Iteration,1,56,0.209103,5.674908
[MO833] Paramount Iteration,5,57,0.045844,5.721679
[MO833] Paramount Iteration,13,57,0.045991,5.721661
[MO833] Paramount Iteration,3,57,0.046529,5.722019
[MO833] Paramount Iteration,4,57,0.046152,5.721912
[MO833] Paramount Iteration,7,57,0.046426,5.721922
[MO833] Paramount Iteration,6,57,0.046302,5.722024
[MO833] Paramount Iteration,11,57,0.046543,5.722032
[MO833] Paramount Iteration,2,57,0.046512,5.722239
[MO833] Paramount Iteration,10,57,0.046477,5.722218
[MO833] Paramount Iteration,9,57,0.046068,5.721226
[MO833] Paramount Iteration,8,57,0.046257,5.721355
[MO833] Paramount Iteration,15,57,0.046508,5.722358
[MO833] Paramount Iteration,14,57,0.046250,5.722461
[MO833] Paramount Iteration,0,57,0.046493,5.720879
[MO833] Paramount Iteration,12,57,0.046564,5.722503
[MO833] Paramount Iteration,1,57,0.046256,5.721231
[MO833] Paramount Iteration,3,58,0.046062,5.768158
[MO833] Paramount Iteration,13,58,0.046304,5.767998
[MO833] Paramount Iteration,2,58,0.046103,5.768362
[MO833] Paramount Iteration,5,58,0.046584,5.768289
[MO833] Paramount Iteration,7,58,0.046265,5.768250
[MO833] Paramount Iteration,11,58,0.046197,5.768294
[MO833] Paramount Iteration,4,58,0.046455,5.768400
[MO833] Paramount Iteration,6,58,0.046352,5.768392
[MO833] Paramount Iteration,10,58,0.046223,5.768459
[MO833] Paramount Iteration,15,58,0.046131,5.768523
[MO833] Paramount Iteration,14,58,0.046125,5.768614
[MO833] Paramount Iteration,12,58,0.046087,5.768652
[MO833] Paramount Iteration,9,58,0.046441,5.767766
[MO833] Paramount Iteration,8,58,0.046404,5.767807
[MO833] Paramount Iteration,0,58,0.046330,5.767259
[MO833] Paramount Iteration,1,58,0.046465,5.767762
[MO833] Paramount Iteration,3,59,0.046008,5.814238
[MO833] Paramount Iteration,7,59,0.045853,5.814165
[MO833] Paramount Iteration,13,59,0.046048,5.814075
[MO833] Paramount Iteration,2,59,0.046080,5.814462
[MO833] Paramount Iteration,11,59,0.045928,5.814287
[MO833] Paramount Iteration,5,59,0.046031,5.814346
[MO833] Paramount Iteration,6,59,0.045949,5.814358
[MO833] Paramount Iteration,15,59,0.045771,5.814326
[MO833] Paramount Iteration,10,59,0.046009,5.814485
[MO833] Paramount Iteration,14,59,0.045833,5.814475
[MO833] Paramount Iteration,4,59,0.046160,5.814589
[MO833] Paramount Iteration,12,59,0.046227,5.814921
[MO833] Paramount Iteration,9,59,0.046283,5.814161
[MO833] Paramount Iteration,8,59,0.046384,5.814200
[MO833] Paramount Iteration,0,59,0.046389,5.813703
[MO833] Paramount Iteration,1,59,0.046149,5.813981
[MO833] Paramount Iteration,13,60,0.210196,6.024302
[MO833] Paramount Iteration,5,60,0.210302,6.024673
[MO833] Paramount Iteration,3,60,0.210663,6.024956
[MO833] Paramount Iteration,2,60,0.210524,6.025004
[MO833] Paramount Iteration,6,60,0.210533,6.024910
[MO833] Paramount Iteration,7,60,0.210679,6.024907
[MO833] Paramount Iteration,4,60,0.210447,6.025068
[MO833] Paramount Iteration,10,60,0.210551,6.025054
[MO833] Paramount Iteration,11,60,0.210722,6.025074
[MO833] Paramount Iteration,9,60,0.209793,6.024067
[MO833] Paramount Iteration,14,60,0.210595,6.025105
[MO833] Paramount Iteration,12,60,0.210230,6.025209
[MO833] Paramount Iteration,8,60,0.210066,6.024275
[MO833] Paramount Iteration,15,60,0.210889,6.025246
[MO833] Paramount Iteration,0,60,0.210069,6.023833
[MO833] Paramount Iteration,1,60,0.210080,6.024129
[MO833] Paramount Iteration,13,61,0.047028,6.071361
[MO833] Paramount Iteration,3,61,0.046719,6.071772
[MO833] Paramount Iteration,5,61,0.046955,6.071655
[MO833] Paramount Iteration,2,61,0.046852,6.071879
[MO833] Paramount Iteration,6,61,0.046835,6.071768
[MO833] Paramount Iteration,4,61,0.046886,6.071986
[MO833] Paramount Iteration,7,61,0.046968,6.071944
[MO833] Paramount Iteration,11,61,0.046848,6.071993
[MO833] Paramount Iteration,9,61,0.046805,6.070957
[MO833] Paramount Iteration,14,61,0.046720,6.071917
[MO833] Paramount Iteration,10,61,0.046958,6.072040
[MO833] Paramount Iteration,15,61,0.046782,6.072060
[MO833] Paramount Iteration,8,61,0.046819,6.071113
[MO833] Paramount Iteration,12,61,0.047078,6.072329
[MO833] Paramount Iteration,0,61,0.047011,6.070908
[MO833] Paramount Iteration,1,61,0.046898,6.071094
[MO833] Paramount Iteration,13,62,0.046195,6.117585
[MO833] Paramount Iteration,3,62,0.046141,6.117985
[MO833] Paramount Iteration,2,62,0.046240,6.118138
[MO833] Paramount Iteration,5,62,0.046351,6.118033
[MO833] Paramount Iteration,7,62,0.046125,6.118102
[MO833] Paramount Iteration,4,62,0.046207,6.118227
[MO833] Paramount Iteration,6,62,0.046405,6.118203
[MO833] Paramount Iteration,11,62,0.046137,6.118199
[MO833] Paramount Iteration,15,62,0.046107,6.118187
[MO833] Paramount Iteration,10,62,0.046308,6.118358
[MO833] Paramount Iteration,14,62,0.046323,6.118319
[MO833] Paramount Iteration,8,62,0.046192,6.117322
[MO833] Paramount Iteration,9,62,0.046278,6.117325
[MO833] Paramount Iteration,12,62,0.046002,6.118376
[MO833] Paramount Iteration,0,62,0.046078,6.117051
[MO833] Paramount Iteration,1,62,0.046437,6.117596
[MO833] Paramount Iteration,13,63,0.046469,6.164085
[MO833] Paramount Iteration,3,63,0.046347,6.164404
[MO833] Paramount Iteration,5,63,0.046330,6.164389
[MO833] Paramount Iteration,2,63,0.046473,6.164630
[MO833] Paramount Iteration,7,63,0.046294,6.164461
[MO833] Paramount Iteration,4,63,0.046312,6.164570
[MO833] Paramount Iteration,6,63,0.046358,6.164577
[MO833] Paramount Iteration,14,63,0.046239,6.164598
[MO833] Paramount Iteration,15,63,0.046396,6.164615
[MO833] Paramount Iteration,11,63,0.046432,6.164704
[MO833] Paramount Iteration,10,63,0.046440,6.164814
[MO833] Paramount Iteration,12,63,0.046375,6.164791
[MO833] Paramount Iteration,9,63,0.046429,6.163833
[MO833] Paramount Iteration,8,63,0.046560,6.163908
[MO833] Paramount Iteration,0,63,0.046401,6.163528
[MO833] Paramount Iteration,1,63,0.046249,6.163912
[MO833] Paramount Iteration,3,64,0.212003,6.376481
[MO833] Paramount Iteration,2,64,0.211970,6.376619
[MO833] Paramount Iteration,7,64,0.211970,6.376495
[MO833] Paramount Iteration,4,64,0.212047,6.376649
[MO833] Paramount Iteration,11,64,0.211873,6.376646
[MO833] Paramount Iteration,13,64,0.212516,6.376629
[MO833] Paramount Iteration,15,64,0.212004,6.376628
[MO833] Paramount Iteration,5,64,0.212462,6.376876
[MO833] Paramount Iteration,6,64,0.212271,6.376863
[MO833] Paramount Iteration,10,64,0.212065,6.376897
[MO833] Paramount Iteration,12,64,0.212080,6.376911
[MO833] Paramount Iteration,8,64,0.212080,6.376004
[MO833] Paramount Iteration,9,64,0.212087,6.376002
[MO833] Paramount Iteration,14,64,0.212492,6.377168
[MO833] Paramount Iteration,0,64,0.212027,6.375620
[MO833] Paramount Iteration,1,64,0.212235,6.376221
[MO833] Paramount Iteration,13,65,0.045918,6.422576
[MO833] Paramount Iteration,3,65,0.046535,6.423089
[MO833] Paramount Iteration,5,65,0.046068,6.422961
[MO833] Paramount Iteration,2,65,0.046636,6.423276
[MO833] Paramount Iteration,4,65,0.046494,6.423206
[MO833] Paramount Iteration,7,65,0.046705,6.423270
[MO833] Paramount Iteration,9,65,0.046253,6.422342
[MO833] Paramount Iteration,6,65,0.046537,6.423418
[MO833] Paramount Iteration,11,65,0.046678,6.423396
[MO833] Paramount Iteration,12,65,0.046415,6.423377
[MO833] Paramount Iteration,8,65,0.046436,6.422461
[MO833] Paramount Iteration,10,65,0.046609,6.423525
[MO833] Paramount Iteration,15,65,0.046812,6.423473
[MO833] Paramount Iteration,14,65,0.046362,6.423579
[MO833] Paramount Iteration,0,65,0.046452,6.422123
[MO833] Paramount Iteration,1,65,0.046136,6.422426
[MO833] Paramount Iteration,13,66,0.045770,6.468373
[MO833] Paramount Iteration,3,66,0.045552,6.468714
[MO833] Paramount Iteration,2,66,0.045668,6.468964
[MO833] Paramount Iteration,5,66,0.045819,6.468805
[MO833] Paramount Iteration,7,66,0.045620,6.468959
[MO833] Paramount Iteration,6,66,0.045609,6.469045
[MO833] Paramount Iteration,4,66,0.045885,6.469123
[MO833] Paramount Iteration,9,66,0.045672,6.468101
[MO833] Paramount Iteration,14,66,0.045535,6.469145
[MO833] Paramount Iteration,11,66,0.045739,6.469204
[MO833] Paramount Iteration,15,66,0.045624,6.469129
[MO833] Paramount Iteration,8,66,0.045814,6.468293
[MO833] Paramount Iteration,12,66,0.045893,6.469310
[MO833] Paramount Iteration,10,66,0.045880,6.469423
[MO833] Paramount Iteration,0,66,0.045691,6.467873
[MO833] Paramount Iteration,1,66,0.045514,6.468006
[MO833] Paramount Iteration,13,67,0.210211,6.678613
[MO833] Paramount Iteration,3,67,0.210401,6.679169
[MO833] Paramount Iteration,5,67,0.210221,6.679052
[MO833] Paramount Iteration,2,67,0.210237,6.679220
[MO833] Paramount Iteration,6,67,0.210057,6.679124
[MO833] Paramount Iteration,7,67,0.210201,6.679223
[MO833] Paramount Iteration,4,67,0.210192,6.679347
[MO833] Paramount Iteration,10,67,0.209906,6.679348
[MO833] Paramount Iteration,11,67,0.210049,6.679330
[MO833] Paramount Iteration,14,67,0.210161,6.679315
[MO833] Paramount Iteration,15,67,0.210103,6.679325
[MO833] Paramount Iteration,9,67,0.210220,6.678410
[MO833] Paramount Iteration,12,67,0.210083,6.679436
[MO833] Paramount Iteration,0,67,0.210093,6.678022
[MO833] Paramount Iteration,8,67,0.210429,6.678744
[MO833] Paramount Iteration,1,67,0.210253,6.678322
[MO833] Paramount Iteration,13,68,0.045955,6.724639
[MO833] Paramount Iteration,3,68,0.045815,6.725086
[MO833] Paramount Iteration,2,68,0.046024,6.725265
[MO833] Paramount Iteration,5,68,0.046155,6.725234
[MO833] Paramount Iteration,7,68,0.045963,6.725244
[MO833] Paramount Iteration,11,68,0.045912,6.725312
[MO833] Paramount Iteration,15,68,0.045919,6.725257
[MO833] Paramount Iteration,6,68,0.046204,6.725356
[MO833] Paramount Iteration,14,68,0.045975,6.725363
[MO833] Paramount Iteration,12,68,0.045897,6.725381
[MO833] Paramount Iteration,4,68,0.046116,6.725495
[MO833] Paramount Iteration,10,68,0.046109,6.725465
[MO833] Paramount Iteration,9,68,0.046009,6.724515
[MO833] Paramount Iteration,8,68,0.045895,6.724688
[MO833] Paramount Iteration,0,68,0.046088,6.724169
[MO833] Paramount Iteration,1,68,0.046147,6.724536
[MO833] Paramount Iteration,3,69,0.046879,6.772022
[MO833] Paramount Iteration,13,69,0.047095,6.771799
[MO833] Paramount Iteration,5,69,0.046850,6.772110
[MO833] Paramount Iteration,7,69,0.046726,6.772035
[MO833] Paramount Iteration,2,69,0.047038,6.772320
[MO833] Paramount Iteration,6,69,0.046861,6.772232
[MO833] Paramount Iteration,11,69,0.046821,6.772205
[MO833] Paramount Iteration,4,69,0.046845,6.772375
[MO833] Paramount Iteration,15,69,0.046945,6.772294
[MO833] Paramount Iteration,14,69,0.046993,6.772396
[MO833] Paramount Iteration,9,69,0.046880,6.771426
[MO833] Paramount Iteration,10,69,0.046999,6.772481
[MO833] Paramount Iteration,12,69,0.047095,6.772519
[MO833] Paramount Iteration,8,69,0.046892,6.771616
[MO833] Paramount Iteration,0,69,0.047077,6.771304
[MO833] Paramount Iteration,1,69,0.046920,6.771525
[MO833] Paramount Iteration,13,70,0.046107,6.817975
[MO833] Paramount Iteration,3,70,0.046257,6.818335
[MO833] Paramount Iteration,5,70,0.046105,6.818240
[MO833] Paramount Iteration,2,70,0.046239,6.818579
[MO833] Paramount Iteration,4,70,0.046137,6.818544
[MO833] Paramount Iteration,7,70,0.046459,6.818563
[MO833] Paramount Iteration,11,70,0.046299,6.818573
[MO833] Paramount Iteration,15,70,0.046219,6.818604
[MO833] Paramount Iteration,14,70,0.046242,6.818681
[MO833] Paramount Iteration,9,70,0.046251,6.817706
[MO833] Paramount Iteration,10,70,0.046276,6.818777
[MO833] Paramount Iteration,6,70,0.046533,6.818784
[MO833] Paramount Iteration,12,70,0.046298,6.818858
[MO833] Paramount Iteration,8,70,0.046340,6.817991
[MO833] Paramount Iteration,0,70,0.046190,6.817556
[MO833] Paramount Iteration,1,70,0.046259,6.817854
[MO833] Paramount Iteration,13,71,0.205860,7.023908
[MO833] Paramount Iteration,3,71,0.205962,7.024353
[MO833] Paramount Iteration,7,71,0.205615,7.024247
[MO833] Paramount Iteration,15,71,0.205519,7.024216
[MO833] Paramount Iteration,2,71,0.205906,7.024504
[MO833] Paramount Iteration,5,71,0.206086,7.024353
[MO833] Paramount Iteration,14,71,0.205548,7.024262
[MO833] Paramount Iteration,6,71,0.205619,7.024423
[MO833] Paramount Iteration,4,71,0.205987,7.024565
[MO833] Paramount Iteration,11,71,0.205883,7.024525
[MO833] Paramount Iteration,12,71,0.205571,7.024478
[MO833] Paramount Iteration,10,71,0.205796,7.024592
[MO833] Paramount Iteration,9,71,0.205816,7.023553
[MO833] Paramount Iteration,8,71,0.205712,7.023751
[MO833] Paramount Iteration,0,71,0.205722,7.023341
[MO833] Paramount Iteration,1,71,0.205633,7.023553
[MO833] Paramount Iteration,3,72,0.046155,7.070582
[MO833] Paramount Iteration,13,72,0.046336,7.070311
[MO833] Paramount Iteration,7,72,0.046188,7.070499
[MO833] Paramount Iteration,2,72,0.046283,7.070806
[MO833] Paramount Iteration,5,72,0.046367,7.070747
[MO833] Paramount Iteration,6,72,0.046328,7.070770
[MO833] Paramount Iteration,15,72,0.046474,7.070780
[MO833] Paramount Iteration,4,72,0.046316,7.070915
[MO833] Paramount Iteration,11,72,0.046267,7.070860
[MO833] Paramount Iteration,12,72,0.046389,7.070907
[MO833] Paramount Iteration,9,72,0.046341,7.069924
[MO833] Paramount Iteration,14,72,0.046636,7.070907
[MO833] Paramount Iteration,10,72,0.046447,7.071074
[MO833] Paramount Iteration,8,72,0.046283,7.070070
[MO833] Paramount Iteration,0,72,0.046240,7.069645
[MO833] Paramount Iteration,1,72,0.046343,7.069963
[MO833] Paramount Iteration,3,73,0.045565,7.116213
[MO833] Paramount Iteration,7,73,0.045636,7.116200
[MO833] Paramount Iteration,4,73,0.045356,7.116301
[MO833] Paramount Iteration,15,73,0.045351,7.116224
[MO833] Paramount Iteration,2,73,0.045663,7.116488
[MO833] Paramount Iteration,11,73,0.045362,7.116291
[MO833] Paramount Iteration,13,73,0.046046,7.116411
[MO833] Paramount Iteration,12,73,0.045515,7.116440
[MO833] Paramount Iteration,5,73,0.045819,7.116593
[MO833] Paramount Iteration,8,73,0.045457,7.115560
[MO833] Paramount Iteration,10,73,0.045566,7.116660
[MO833] Paramount Iteration,6,73,0.045907,7.116697
[MO833] Paramount Iteration,9,73,0.045778,7.115732
[MO833] Paramount Iteration,14,73,0.045728,7.116688
[MO833] Paramount Iteration,0,73,0.045626,7.115332
[MO833] Paramount Iteration,1,73,0.045709,7.115740
[MO833] Paramount Iteration,3,74,0.209569,7.325851
[MO833] Paramount Iteration,7,74,0.209466,7.325734
[MO833] Paramount Iteration,13,74,0.209160,7.325637
[MO833] Paramount Iteration,11,74,0.209608,7.325970
[MO833] Paramount Iteration,2,74,0.209706,7.326213
[MO833] Paramount Iteration,6,74,0.209359,7.326077
[MO833] Paramount Iteration,15,74,0.209724,7.326021
[MO833] Paramount Iteration,5,74,0.209546,7.326156
[MO833] Paramount Iteration,4,74,0.209797,7.326157
[MO833] Paramount Iteration,12,74,0.209643,7.326092
[MO833] Paramount Iteration,10,74,0.209634,7.326313
[MO833] Paramount Iteration,14,74,0.209523,7.326260
[MO833] Paramount Iteration,8,74,0.209868,7.325497
[MO833] Paramount Iteration,9,74,0.209742,7.325494
[MO833] Paramount Iteration,0,74,0.209815,7.325209
[MO833] Paramount Iteration,1,74,0.209701,7.325511
[MO833] Paramount Iteration,13,75,0.046246,7.371946
[MO833] Paramount Iteration,2,75,0.046330,7.372564
[MO833] Paramount Iteration,5,75,0.046252,7.372435
[MO833] Paramount Iteration,3,75,0.046625,7.372551
[MO833] Paramount Iteration,6,75,0.046459,7.372555
[MO833] Paramount Iteration,14,75,0.046264,7.372569
[MO833] Paramount Iteration,4,75,0.046510,7.372728
[MO833] Paramount Iteration,7,75,0.046928,7.372727
[MO833] Paramount Iteration,12,75,0.046554,7.372665
[MO833] Paramount Iteration,9,75,0.046205,7.371728
[MO833] Paramount Iteration,15,75,0.046686,7.372801
[MO833] Paramount Iteration,10,75,0.046528,7.372861
[MO833] Paramount Iteration,0,75,0.046157,7.371431
[MO833] Paramount Iteration,8,75,0.046510,7.372084
[MO833] Paramount Iteration,11,75,0.047076,7.373128
[MO833] Paramount Iteration,1,75,0.045929,7.371511
[MO833] Paramount Iteration,13,76,0.045792,7.417796
[MO833] Paramount Iteration,3,76,0.045590,7.418212
[MO833] Paramount Iteration,2,76,0.045909,7.418481
[MO833] Paramount Iteration,5,76,0.045967,7.418425
[MO833] Paramount Iteration,7,76,0.045677,7.418441
[MO833] Paramount Iteration,12,76,0.045730,7.418415
[MO833] Paramount Iteration,4,76,0.045806,7.418567
[MO833] Paramount Iteration,11,76,0.045351,7.418514
[MO833] Paramount Iteration,15,76,0.045618,7.418463
[MO833] Paramount Iteration,14,76,0.045944,7.418589
[MO833] Paramount Iteration,6,76,0.046078,7.418662
[MO833] Paramount Iteration,10,76,0.045841,7.418733
[MO833] Paramount Iteration,9,76,0.045998,7.417759
[MO833] Paramount Iteration,8,76,0.045747,7.417872
[MO833] Paramount Iteration,0,76,0.045994,7.417486
[MO833] Paramount Iteration,1,76,0.046213,7.417845
[MO833] Paramount Iteration,13,77,0.045609,7.463461
[MO833] Paramount Iteration,3,77,0.045472,7.463754
[MO833] Paramount Iteration,2,77,0.045534,7.464040
[MO833] Paramount Iteration,5,77,0.045444,7.463896
[MO833] Paramount Iteration,7,77,0.045302,7.463812
[MO833] Paramount Iteration,6,77,0.045311,7.463993
[MO833] Paramount Iteration,11,77,0.045402,7.463983
[MO833] Paramount Iteration,4,77,0.045489,7.464088
[MO833] Paramount Iteration,15,77,0.045486,7.464020
[MO833] Paramount Iteration,12,77,0.045624,7.464057
[MO833] Paramount Iteration,14,77,0.045467,7.464097
[MO833] Paramount Iteration,10,77,0.045487,7.464238
[MO833] Paramount Iteration,9,77,0.045488,7.463276
[MO833] Paramount Iteration,8,77,0.045413,7.463317
[MO833] Paramount Iteration,0,77,0.045250,7.462797
[MO833] Paramount Iteration,1,77,0.045196,7.463108
[MO833] Paramount Iteration,3,78,0.206422,7.670231
[MO833] Paramount Iteration,4,78,0.206082,7.670200
[MO833] Paramount Iteration,7,78,0.206292,7.670166
[MO833] Paramount Iteration,8,78,0.206104,7.669429
[MO833] Paramount Iteration,0,78,0.206050,7.668904
[MO833] Paramount Iteration,2,78,0.206647,7.670706
[MO833] Paramount Iteration,11,78,0.206532,7.670587
[MO833] Paramount Iteration,5,78,0.206787,7.670710
[MO833] Paramount Iteration,12,78,0.206471,7.670548
[MO833] Paramount Iteration,6,78,0.206665,7.670677
[MO833] Paramount Iteration,13,78,0.207144,7.670668
[MO833] Paramount Iteration,15,78,0.206501,7.670595
[MO833] Paramount Iteration,10,78,0.206722,7.670980
[MO833] Paramount Iteration,9,78,0.206551,7.669929
[MO833] Paramount Iteration,14,78,0.206945,7.671075
[MO833] Paramount Iteration,1,78,0.206594,7.669773
[MO833] Paramount Iteration,13,79,0.044301,7.715002
[MO833] Paramount Iteration,7,79,0.044992,7.715219
[MO833] Paramount Iteration,3,79,0.045113,7.715420
[MO833] Paramount Iteration,15,79,0.044572,7.715268
[MO833] Paramount Iteration,5,79,0.044672,7.715400
[MO833] Paramount Iteration,2,79,0.044874,7.715600
[MO833] Paramount Iteration,14,79,0.044255,7.715381
[MO833] Paramount Iteration,4,79,0.045230,7.715489
[MO833] Paramount Iteration,6,79,0.044780,7.715477
[MO833] Paramount Iteration,12,79,0.044885,7.715461
[MO833] Paramount Iteration,11,79,0.044980,7.715645
[MO833] Paramount Iteration,10,79,0.044732,7.715757
[MO833] Paramount Iteration,8,79,0.045282,7.714782
[MO833] Paramount Iteration,0,79,0.045297,7.714251
[MO833] Paramount Iteration,9,79,0.044791,7.714802
[MO833] Paramount Iteration,1,79,0.044743,7.714585
[MO833] Paramount Iteration,13,80,0.046080,7.761140
[MO833] Paramount Iteration,5,80,0.046074,7.761499
[MO833] Paramount Iteration,3,80,0.046231,7.761709
[MO833] Paramount Iteration,7,80,0.046286,7.761566
[MO833] Paramount Iteration,4,80,0.046245,7.761766
[MO833] Paramount Iteration,6,80,0.046263,7.761759
[MO833] Paramount Iteration,2,80,0.046351,7.761970
[MO833] Paramount Iteration,12,80,0.046301,7.761782
[MO833] Paramount Iteration,15,80,0.046390,7.761746
[MO833] Paramount Iteration,14,80,0.046424,7.761862
[MO833] Paramount Iteration,9,80,0.046065,7.760876
[MO833] Paramount Iteration,11,80,0.046261,7.761978
[MO833] Paramount Iteration,8,80,0.046259,7.761114
[MO833] Paramount Iteration,10,80,0.046431,7.762227
[MO833] Paramount Iteration,0,80,0.046386,7.760685
[MO833] Paramount Iteration,1,80,0.046350,7.761006
[MO833] Paramount Iteration,3,81,0.214195,7.975969
[MO833] Paramount Iteration,7,81,0.214214,7.975840
[MO833] Paramount Iteration,2,81,0.214262,7.976251
[MO833] Paramount Iteration,11,81,0.214009,7.976056
[MO833] Paramount Iteration,13,81,0.214936,7.976134
[MO833] Paramount Iteration,4,81,0.214562,7.976359
[MO833] Paramount Iteration,10,81,0.214069,7.976338
[MO833] Paramount Iteration,6,81,0.214593,7.976371
[MO833] Paramount Iteration,15,81,0.214476,7.976320
[MO833] Paramount Iteration,5,81,0.214978,7.976502
[MO833] Paramount Iteration,12,81,0.214561,7.976362
[MO833] Paramount Iteration,9,81,0.214574,7.975538
[MO833] Paramount Iteration,8,81,0.214441,7.975599
[MO833] Paramount Iteration,0,81,0.214270,7.975009
[MO833] Paramount Iteration,14,81,0.214691,7.976589
[MO833] Paramount Iteration,1,81,0.214235,7.975307
[MO833] Paramount Iteration,3,82,0.046422,8.022451
[MO833] Paramount Iteration,13,82,0.046050,8.022249
[MO833] Paramount Iteration,7,82,0.046453,8.022359
[MO833] Paramount Iteration,2,82,0.046422,8.022694
[MO833] Paramount Iteration,5,82,0.046074,8.022606
[MO833] Paramount Iteration,11,82,0.046497,8.022619
[MO833] Paramount Iteration,6,82,0.046272,8.022662
[MO833] Paramount Iteration,10,82,0.046393,8.022802
[MO833] Paramount Iteration,15,82,0.046302,8.022725
[MO833] Paramount Iteration,4,82,0.046440,8.022864
[MO833] Paramount Iteration,14,82,0.046227,8.022868
[MO833] Paramount Iteration,9,82,0.046323,8.021961
[MO833] Paramount Iteration,8,82,0.046460,8.022068
[MO833] Paramount Iteration,12,82,0.046671,8.023052
[MO833] Paramount Iteration,0,82,0.046660,8.021715
[MO833] Paramount Iteration,1,82,0.046702,8.022073
[MO833] Paramount Iteration,13,83,0.046254,8.068587
[MO833] Paramount Iteration,3,83,0.046577,8.069085
[MO833] Paramount Iteration,7,83,0.046554,8.068983
[MO833] Paramount Iteration,5,83,0.046433,8.069067
[MO833] Paramount Iteration,2,83,0.046575,8.069288
[MO833] Paramount Iteration,6,83,0.046598,8.069279
[MO833] Paramount Iteration,4,83,0.046463,8.069361
[MO833] Paramount Iteration,12,83,0.046262,8.069335
[MO833] Paramount Iteration,11,83,0.046699,8.069389
[MO833] Paramount Iteration,15,83,0.046626,8.069445
[MO833] Paramount Iteration,10,83,0.046732,8.069573
[MO833] Paramount Iteration,9,83,0.046469,8.068527
[MO833] Paramount Iteration,14,83,0.046646,8.069559
[MO833] Paramount Iteration,8,83,0.046534,8.068641
[MO833] Paramount Iteration,0,83,0.046299,8.068076
[MO833] Paramount Iteration,1,83,0.046244,8.068388
[MO833] Paramount Iteration,13,84,0.046465,8.115116
[MO833] Paramount Iteration,3,84,0.046369,8.115510
[MO833] Paramount Iteration,7,84,0.046419,8.115461
[MO833] Paramount Iteration,2,84,0.046396,8.115702
[MO833] Paramount Iteration,5,84,0.046487,8.115581
[MO833] Paramount Iteration,11,84,0.046156,8.115619
[MO833] Paramount Iteration,4,84,0.046308,8.115702
[MO833] Paramount Iteration,6,84,0.046425,8.115723
[MO833] Paramount Iteration,12,84,0.046333,8.115688
[MO833] Paramount Iteration,10,84,0.046211,8.115825
[MO833] Paramount Iteration,15,84,0.046363,8.115907
[MO833] Paramount Iteration,14,84,0.046381,8.115984
[MO833] Paramount Iteration,9,84,0.046391,8.115017
[MO833] Paramount Iteration,8,84,0.046371,8.115052
[MO833] Paramount Iteration,0,84,0.046495,8.114630
[MO833] Paramount Iteration,1,84,0.046480,8.114936
[MO833] Paramount Iteration,3,85,0.211120,8.326702
[MO833] Paramount Iteration,7,85,0.211153,8.326678
[MO833] Paramount Iteration,2,85,0.211324,8.327045
[MO833] Paramount Iteration,4,85,0.211200,8.326932
[MO833] Paramount Iteration,11,85,0.211164,8.326857
[MO833] Paramount Iteration,13,85,0.211815,8.326993
[MO833] Paramount Iteration,15,85,0.211021,8.327025
[MO833] Paramount Iteration,5,85,0.211605,8.327213
[MO833] Paramount Iteration,10,85,0.211276,8.327157
[MO833] Paramount Iteration,12,85,0.211395,8.327102
[MO833] Paramount Iteration,6,85,0.211460,8.327203
[MO833] Paramount Iteration,8,85,0.211170,8.326232
[MO833] Paramount Iteration,0,85,0.211108,8.325798
[MO833] Paramount Iteration,9,85,0.211367,8.326482
[MO833] Paramount Iteration,14,85,0.211416,8.327435
[MO833] Paramount Iteration,1,85,0.211493,8.326495
[MO833] Paramount Iteration,3,86,0.046177,8.372955
[MO833] Paramount Iteration,7,86,0.046092,8.372835
[MO833] Paramount Iteration,2,86,0.046082,8.373149
[MO833] Paramount Iteration,13,86,0.045853,8.372912
[MO833] Paramount Iteration,11,86,0.046086,8.373013
[MO833] Paramount Iteration,4,86,0.046162,8.373156
[MO833] Paramount Iteration,5,86,0.046043,8.373274
[MO833] Paramount Iteration,15,86,0.046046,8.373189
[MO833] Paramount Iteration,6,86,0.046101,8.373324
[MO833] Paramount Iteration,10,86,0.046136,8.373338
[MO833] Paramount Iteration,12,86,0.046152,8.373270
[MO833] Paramount Iteration,8,86,0.046034,8.372338
[MO833] Paramount Iteration,0,86,0.045974,8.371834
[MO833] Paramount Iteration,9,86,0.045917,8.372443
[MO833] Paramount Iteration,14,86,0.046042,8.373531
[MO833] Paramount Iteration,1,86,0.045806,8.372366
[MO833] Paramount Iteration,3,87,0.044921,8.417933
[MO833] Paramount Iteration,7,87,0.044970,8.417870
[MO833] Paramount Iteration,2,87,0.044931,8.418097
[MO833] Paramount Iteration,4,87,0.044887,8.418098
[MO833] Paramount Iteration,11,87,0.045037,8.418116
[MO833] Paramount Iteration,13,87,0.045140,8.418118
[MO833] Paramount Iteration,12,87,0.044908,8.418198
[MO833] Paramount Iteration,8,87,0.044816,8.417228
[MO833] Paramount Iteration,5,87,0.045051,8.418342
[MO833] Paramount Iteration,15,87,0.044969,8.418232
[MO833] Paramount Iteration,0,87,0.044828,8.416719
[MO833] Paramount Iteration,6,87,0.044983,8.418326
[MO833] Paramount Iteration,10,87,0.045019,8.418412
[MO833] Paramount Iteration,9,87,0.044975,8.417481
[MO833] Paramount Iteration,14,87,0.045010,8.418590
[MO833] Paramount Iteration,1,87,0.044935,8.417385
[MO833] Paramount Iteration,3,88,0.044922,8.462910
[MO833] Paramount Iteration,2,88,0.045167,8.463282
[MO833] Paramount Iteration,7,88,0.045192,8.463130
[MO833] Paramount Iteration,4,88,0.045075,8.463232
[MO833] Paramount Iteration,11,88,0.045046,8.463232
[MO833] Paramount Iteration,5,88,0.045198,8.463559
[MO833] Paramount Iteration,6,88,0.045166,8.463512
[MO833] Paramount Iteration,13,88,0.045254,8.463437
[MO833] Paramount Iteration,8,88,0.045184,8.462484
[MO833] Paramount Iteration,15,88,0.045091,8.463404
[MO833] Paramount Iteration,0,88,0.045175,8.461964
[MO833] Paramount Iteration,10,88,0.045136,8.463593
[MO833] Paramount Iteration,12,88,0.045333,8.463551
[MO833] Paramount Iteration,9,88,0.045173,8.462695
[MO833] Paramount Iteration,14,88,0.045166,8.463807
[MO833] Paramount Iteration,1,88,0.045093,8.462544
[MO833] Paramount Iteration,3,89,0.212538,8.675516
[MO833] Paramount Iteration,2,89,0.212402,8.675704
[MO833] Paramount Iteration,7,89,0.212346,8.675541
[MO833] Paramount Iteration,11,89,0.212380,8.675643
[MO833] Paramount Iteration,13,89,0.212125,8.675629
[MO833] Paramount Iteration,15,89,0.212165,8.675670
[MO833] Paramount Iteration,6,89,0.212303,8.675835
[MO833] Paramount Iteration,10,89,0.212236,8.675867
[MO833] Paramount Iteration,12,89,0.212228,8.675796
[MO833] Paramount Iteration,4,89,0.212653,8.675941
[MO833] Paramount Iteration,5,89,0.212449,8.676026
[MO833] Paramount Iteration,8,89,0.212353,8.674908
[MO833] Paramount Iteration,14,89,0.212132,8.676009
[MO833] Paramount Iteration,0,89,0.212478,8.674524
[MO833] Paramount Iteration,9,89,0.212406,8.675177
[MO833] Paramount Iteration,1,89,0.212560,8.675168
[MO833] Paramount Iteration,13,90,0.045974,8.721667
[MO833] Paramount Iteration,3,90,0.046512,8.722123
[MO833] Paramount Iteration,2,90,0.046593,8.722316
[MO833] Paramount Iteration,5,90,0.046245,8.722305
[MO833] Paramount Iteration,6,90,0.046532,8.722387
[MO833] Paramount Iteration,11,90,0.046638,8.722354
[MO833] Paramount Iteration,7,90,0.046744,8.722357
[MO833] Paramount Iteration,10,90,0.046530,8.722441
[MO833] Paramount Iteration,12,90,0.046557,8.722405
[MO833] Paramount Iteration,9,90,0.046235,8.721456
[MO833] Paramount Iteration,14,90,0.046413,8.722477
[MO833] Paramount Iteration,4,90,0.046614,8.722622
[MO833] Paramount Iteration,15,90,0.046757,8.722534
[MO833] Paramount Iteration,8,90,0.046619,8.721601
[MO833] Paramount Iteration,0,90,0.046489,8.721074
[MO833] Paramount Iteration,1,90,0.046159,8.721400
[MO833] Paramount Iteration,13,91,0.046183,8.767912
[MO833] Paramount Iteration,3,91,0.046128,8.768308
[MO833] Paramount Iteration,2,91,0.046225,8.768560
[MO833] Paramount Iteration,5,91,0.046189,8.768523
[MO833] Paramount Iteration,7,91,0.046038,8.768474
[MO833] Paramount Iteration,11,91,0.046054,8.768476
[MO833] Paramount Iteration,6,91,0.046266,8.768660
[MO833] Paramount Iteration,10,91,0.046279,8.768761
[MO833] Paramount Iteration,12,91,0.046265,8.768715
[MO833] Paramount Iteration,4,91,0.046209,8.768883
[MO833] Paramount Iteration,9,91,0.046242,8.767794
[MO833] Paramount Iteration,15,91,0.046281,8.768824
[MO833] Paramount Iteration,14,91,0.046349,8.768903
[MO833] Paramount Iteration,8,91,0.046404,8.768048
[MO833] Paramount Iteration,0,91,0.046410,8.767556
[MO833] Paramount Iteration,1,91,0.046276,8.767745
[MO833] Paramount Iteration,3,92,0.046948,8.815326
[MO833] Paramount Iteration,7,92,0.046607,8.815146
[MO833] Paramount Iteration,2,92,0.046984,8.815564
[MO833] Paramount Iteration,4,92,0.046606,8.815528
[MO833] Paramount Iteration,11,92,0.046894,8.815474
[MO833] Paramount Iteration,6,92,0.046984,8.815661
[MO833] Paramount Iteration,10,92,0.046950,8.815754
[MO833] Paramount Iteration,15,92,0.046737,8.815655
[MO833] Paramount Iteration,13,92,0.047720,8.815695
[MO833] Paramount Iteration,12,92,0.046963,8.815723
[MO833] Paramount Iteration,0,92,0.046617,8.814234
[MO833] Paramount Iteration,5,92,0.047370,8.815923
[MO833] Paramount Iteration,8,92,0.046808,8.814906
[MO833] Paramount Iteration,9,92,0.047277,8.815171
[MO833] Paramount Iteration,14,92,0.047184,8.816122
[MO833] Paramount Iteration,1,92,0.047062,8.814871
[MO833] Paramount Iteration,3,93,0.215504,9.030887
[MO833] Paramount Iteration,7,93,0.215544,9.030750
[MO833] Paramount Iteration,4,93,0.215274,9.030857
[MO833] Paramount Iteration,2,93,0.215557,9.031140
[MO833] Paramount Iteration,11,93,0.215547,9.031090
[MO833] Paramount Iteration,15,93,0.215297,9.031054
[MO833] Paramount Iteration,6,93,0.215541,9.031222
[MO833] Paramount Iteration,12,93,0.215400,9.031132
[MO833] Paramount Iteration,13,93,0.215460,9.031224
[MO833] Paramount Iteration,8,93,0.215250,9.030225
[MO833] Paramount Iteration,5,93,0.215426,9.031367
[MO833] Paramount Iteration,10,93,0.215601,9.031399
[MO833] Paramount Iteration,0,93,0.215473,9.029764
[MO833] Paramount Iteration,14,93,0.215370,9.031546
[MO833] Paramount Iteration,9,93,0.215402,9.030616
[MO833] Paramount Iteration,1,93,0.215595,9.030535
[MO833] Paramount Iteration,3,94,0.046825,9.077787
[MO833] Paramount Iteration,13,94,0.046266,9.077529
[MO833] Paramount Iteration,2,94,0.046854,9.078015
[MO833] Paramount Iteration,7,94,0.047079,9.077899
[MO833] Paramount Iteration,5,94,0.046639,9.078025
[MO833] Paramount Iteration,11,94,0.046857,9.078030
[MO833] Paramount Iteration,4,94,0.047356,9.078278
[MO833] Paramount Iteration,6,94,0.046974,9.078215
[MO833] Paramount Iteration,10,94,0.046781,9.078223
[MO833] Paramount Iteration,12,94,0.046959,9.078172
[MO833] Paramount Iteration,15,94,0.047129,9.078216
[MO833] Paramount Iteration,9,94,0.046634,9.077298
[MO833] Paramount Iteration,8,94,0.047102,9.077414
[MO833] Paramount Iteration,14,94,0.046780,9.078373
[MO833] Paramount Iteration,0,94,0.047226,9.077068
[MO833] Paramount Iteration,1,94,0.046687,9.077293
[MO833] Paramount Iteration,3,95,0.047529,9.125385
[MO833] Paramount Iteration,13,95,0.047597,9.125185
[MO833] Paramount Iteration,2,95,0.047429,9.125464
[MO833] Paramount Iteration,7,95,0.047428,9.125394
[MO833] Paramount Iteration,4,95,0.047254,9.125567
[MO833] Paramount Iteration,5,95,0.047563,9.125616
[MO833] Paramount Iteration,12,95,0.047332,9.125547
[MO833] Paramount Iteration,11,95,0.047542,9.125642
[MO833] Paramount Iteration,6,95,0.047507,9.125742
[MO833] Paramount Iteration,15,95,0.047404,9.125655
[MO833] Paramount Iteration,10,95,0.047531,9.125795
[MO833] Paramount Iteration,0,95,0.047137,9.124289
[MO833] Paramount Iteration,8,95,0.047484,9.124948
[MO833] Paramount Iteration,9,95,0.047622,9.125007
[MO833] Paramount Iteration,14,95,0.047591,9.126001
[MO833] Paramount Iteration,1,95,0.047436,9.124794
[MO833] Paramount Iteration,13,96,0.046251,9.171464
[MO833] Paramount Iteration,3,96,0.046352,9.171791
[MO833] Paramount Iteration,2,96,0.046560,9.172040
[MO833] Paramount Iteration,5,96,0.046326,9.171950
[MO833] Paramount Iteration,7,96,0.046402,9.171863
[MO833] Paramount Iteration,6,96,0.046311,9.172073
[MO833] Paramount Iteration,11,96,0.046366,9.172082
[MO833] Paramount Iteration,9,96,0.046043,9.171128
[MO833] Paramount Iteration,15,96,0.046420,9.172108
[MO833] Paramount Iteration,4,96,0.046641,9.172274
[MO833] Paramount Iteration,10,96,0.046451,9.172289
[MO833] Paramount Iteration,12,96,0.046697,9.172280
[MO833] Paramount Iteration,14,96,0.046246,9.172291
[MO833] Paramount Iteration,8,96,0.046335,9.171354
[MO833] Paramount Iteration,0,96,0.046573,9.170924
[MO833] Paramount Iteration,1,96,0.046252,9.171116
[MO833] Paramount Iteration,13,97,0.212591,9.384082
[MO833] Paramount Iteration,3,97,0.212673,9.384533
[MO833] Paramount Iteration,2,97,0.212551,9.384611
[MO833] Paramount Iteration,5,97,0.212668,9.384645
[MO833] Paramount Iteration,6,97,0.212484,9.384576
[MO833] Paramount Iteration,9,97,0.212396,9.383614
[MO833] Paramount Iteration,7,97,0.212762,9.384692
[MO833] Paramount Iteration,10,97,0.212367,9.384713
[MO833] Paramount Iteration,11,97,0.212606,9.384758
[MO833] Paramount Iteration,12,97,0.212409,9.384728
[MO833] Paramount Iteration,8,97,0.212394,9.383794
[MO833] Paramount Iteration,14,97,0.212372,9.384702
[MO833] Paramount Iteration,4,97,0.212569,9.384877
[MO833] Paramount Iteration,15,97,0.212586,9.384727
[MO833] Paramount Iteration,0,97,0.212559,9.383542
[MO833] Paramount Iteration,1,97,0.212477,9.383657
[MO833] Paramount Iteration,13,98,0.047557,9.431669
[MO833] Paramount Iteration,5,98,0.047558,9.432232
[MO833] Paramount Iteration,2,98,0.047804,9.432431
[MO833] Paramount Iteration,3,98,0.047807,9.432418
[MO833] Paramount Iteration,9,98,0.047708,9.431404
[MO833] Paramount Iteration,4,98,0.047700,9.432613
[MO833] Paramount Iteration,6,98,0.047948,9.432554
[MO833] Paramount Iteration,10,98,0.047772,9.432574
[MO833] Paramount Iteration,11,98,0.047941,9.432708
[MO833] Paramount Iteration,12,98,0.047770,9.432535
[MO833] Paramount Iteration,8,98,0.047774,9.431613
[MO833] Paramount Iteration,14,98,0.047716,9.432529
[MO833] Paramount Iteration,7,98,0.047962,9.432716
[MO833] Paramount Iteration,15,98,0.047891,9.432631
[MO833] Paramount Iteration,0,98,0.047862,9.431465
[MO833] Paramount Iteration,1,98,0.047750,9.431484
[MO833] Paramount Iteration,13,99,0.048570,9.480267
[MO833] Paramount Iteration,3,99,0.048255,9.480755
[MO833] Paramount Iteration,2,99,0.048408,9.480848
[MO833] Paramount Iteration,5,99,0.048491,9.480751
[MO833] Paramount Iteration,7,99,0.048058,9.480811
[MO833] Paramount Iteration,6,99,0.048267,9.480850
[MO833] Paramount Iteration,4,99,0.048402,9.481052
[MO833] Paramount Iteration,10,99,0.048337,9.480997
[MO833] Paramount Iteration,9,99,0.048501,9.479993
[MO833] Paramount Iteration,11,99,0.048275,9.481003
[MO833] Paramount Iteration,12,99,0.048425,9.480999
[MO833] Paramount Iteration,14,99,0.048381,9.480984
[MO833] Paramount Iteration,15,99,0.048389,9.481035
[MO833] Paramount Iteration,8,99,0.048577,9.480233
[MO833] Paramount Iteration,0,99,0.048436,9.479969
[MO833] Paramount Iteration,1,99,0.048678,9.480170
[MO833] Paramount Iteration,2,100,0.241970,9.722835
[MO833] Paramount Iteration,4,100,0.241628,9.722717
[MO833] Paramount Iteration,6,100,0.241810,9.722669
[MO833] Paramount Iteration,10,100,0.241599,9.722685
[MO833] Paramount Iteration,12,100,0.241593,9.722633
[MO833] Paramount Iteration,8,100,0.241417,9.721708
[MO833] Paramount Iteration,14,100,0.241556,9.722616
     100   0.97370899   0.44244116    20.501568    22.404572    4.6905307 
[MO833] Paramount Iteration,3,100,0.242009,9.722835
[MO833] Paramount Iteration,5,100,0.241959,9.722738
[MO833] Paramount Iteration,7,100,0.241787,9.722669
[MO833] Paramount Iteration,11,100,0.241664,9.722688
[MO833] Paramount Iteration,13,100,0.242339,9.722633
[MO833] Paramount Iteration,9,100,0.241614,9.721706
[MO833] Paramount Iteration,15,100,0.241572,9.722616
[MO833] Paramount Iteration,1,100,0.240828,9.721067
[MO833] Paramount Iteration,0,100,0.241148,9.721180
Loop time of 8.68038 on 16 procs for 100 steps with 2048000 atoms

Performance: 11944.173 tau/day, 11.520 timesteps/s
94.1% CPU use with 16 MPI tasks x 1 OpenMP threads

MPI task timing breakdown:
Section |  min time  |  avg time  |  max time  |%varavg| %total
---------------------------------------------------------------
Pair    | 1.4768     | 1.7344     | 1.9173     |  11.1 | 19.98
Bond    | 0.57259    | 0.79301    | 0.97209    |  14.9 |  9.14
Neigh   | 3.7699     | 3.7826     | 3.7946     |   0.3 | 43.58
Comm    | 0.71924    | 1.0743     | 1.5711     |  27.1 | 12.38
Output  | 0.0015357  | 0.0019558  | 0.0024424  |   0.5 |  0.02
Modify  | 0.93213    | 0.98425    | 1.0785     |   3.7 | 11.34
Other   |            | 0.3099     |            |       |  3.57

Nlocal:    128000 ave 128092 max 127945 min
Histogram: 1 4 3 0 3 3 1 0 0 1
Nghost:    24499.1 ave 24615 max 24407 min
Histogram: 3 0 1 1 6 1 1 1 1 1
Neighs:    623046 ave 623809 max 622608 min
Histogram: 3 3 2 0 3 3 0 1 0 1

Total # of neighbors = 9968733
Ave neighs/atom = 4.86755
Ave special neighs/atom = 1.98
Neighbor list builds = 26
Dangerous builds = 0
Total wall time: 0:00:09
[MO833] Beta,1,0.124103
[MO833] Beta,3,0.124342
[MO833] Beta,9,0.124198
[MO833] PI avg,3,0.086801,100
[MO833] Beta,5,0.124335
[MO833] PI avg,5,0.086801,100
[MO833] PI avg,9,0.086802,100
[MO833] Beta,7,0.124335
[MO833] Beta,2,0.124361
[MO833] PI avg,2,0.086800,100
[MO833] PI avg,7,0.086801,100
[MO833] Beta,11,0.124337
[MO833] PI avg,11,0.086801,100
[MO833] Beta,13,0.124331
[MO833] Beta,15,0.124339
[MO833] PI avg,15,0.086800,100
[MO833] PI avg,13,0.086801,100
[MO833] PI avg,1,0.086803,100
[MO833] Beta,4,0.124388
[MO833] PI avg,4,0.086801,100
[MO833] Beta,0,0.124221
[MO833] Beta,6,0.124431
[MO833] PI avg,6,0.086800,100
[MO833] Beta,10,0.124403
[MO833] Beta,12,0.124424
[MO833] PI avg,12,0.086801,100
[MO833] Beta,8,0.124313
[MO833] PI avg,8,0.086801,100
[MO833] Beta,14,0.124423
[MO833] PI avg,0,0.086802,100
[MO833] PI avg,10,0.086801,100
[MO833] PI avg,14,0.086801,100
[MO833] Total time,9.758463
