LAMMPS (3 Mar 2020)
OMP_NUM_THREADS environment is not set. Defaulting to 1 thread. (src/comm.cpp:94)
  using 1 OpenMP thread(s) per MPI task
Reading data file ...
  orthogonal box = (-16.796 -16.796 -16.796) to (16.796 16.796 16.796)
  2 by 2 by 4 MPI processor grid
  reading atoms ...
  32000 atoms
  reading velocities ...
  32000 velocities
  scanning bonds ...
  1 = max bonds/atom
  reading bonds ...
  31680 bonds
Finding 1-2 1-3 1-4 neighbors ...
  special bond factors lj:   0          1          1         
  special bond factors coul: 0          1          1         
  2 = max # of 1-2 neighbors
  2 = max # of special neighbors
  special bonds CPU = 0.00695395 secs
  read_data CPU = 0.158059 secs
Replicating atoms ...
  orthogonal box = (-16.796 -16.796 -16.796) to (117.572 117.572 117.572)
  2 by 2 by 4 MPI processor grid
  2048000 atoms
  2027520 bonds
Finding 1-2 1-3 1-4 neighbors ...
  special bond factors lj:   0          1          1         
  special bond factors coul: 0          1          1         
  2 = max # of 1-2 neighbors
  2 = max # of special neighbors
  special bonds CPU = 0.0743411 secs
  replicate CPU = 0.159107 secs
Neighbor list info ...
  update every 1 steps, delay 1 steps, check yes
  max neighbors/atom: 2000, page size: 100000
  master list distance cutoff = 1.52
  ghost atom cutoff = 1.52
  binsize = 0.76, bins = 177 177 177
  1 neighbor lists, perpetual/occasional/extra = 1 0 0
  (1) pair lj/cut, perpetual
      attributes: half, newton on
      pair build: half/bin/newton
      stencil: half/bin/3d/newton
      bin: standard
Setting up Verlet run ...
  Unit style    : lj
  Current step  : 0
  Time step     : 0.012
WARNING: Communication cutoff 1.52 is shorter than a bond length based estimate of 1.855. This may lead to errors. (src/comm.cpp:686)
Per MPI rank memory allocation (min/avg/max) = 50.41 | 50.41 | 50.41 Mbytes
Step Temp E_pair E_mol TotEng Press 
       0   0.97026787   0.44484087    20.494523    22.394765    4.6721833 
[MO833] Paramount Iteration,2,1,0.036592,0.670766
[MO833] Paramount Iteration,5,1,0.036532,0.670366
[MO833] Paramount Iteration,13,1,0.036688,0.670593
[MO833] Paramount Iteration,3,1,0.036876,0.671048
[MO833] Paramount Iteration,6,1,0.036830,0.670698
[MO833] Paramount Iteration,7,1,0.036942,0.670813
[MO833] Paramount Iteration,10,1,0.036943,0.670751
[MO833] Paramount Iteration,4,1,0.037047,0.670882
[MO833] Paramount Iteration,12,1,0.037018,0.670918
[MO833] Paramount Iteration,1,1,0.037159,0.670909
[MO833] Paramount Iteration,9,1,0.037121,0.670567
[MO833] Paramount Iteration,14,1,0.037082,0.670810
[MO833] Paramount Iteration,11,1,0.037325,0.671160
[MO833] Paramount Iteration,15,1,0.037371,0.671130
[MO833] Paramount Iteration,8,1,0.037611,0.671060
[MO833] Paramount Iteration,0,1,0.038347,0.672090
[MO833] Paramount Iteration,2,2,0.038284,0.709133
[MO833] Paramount Iteration,5,2,0.038296,0.708700
[MO833] Paramount Iteration,3,2,0.038075,0.709149
[MO833] Paramount Iteration,6,2,0.038108,0.708847
[MO833] Paramount Iteration,13,2,0.038158,0.708849
[MO833] Paramount Iteration,7,2,0.037996,0.708869
[MO833] Paramount Iteration,12,2,0.038082,0.709022
[MO833] Paramount Iteration,4,2,0.038077,0.709004
[MO833] Paramount Iteration,10,2,0.038245,0.709035
[MO833] Paramount Iteration,14,2,0.038134,0.708981
[MO833] Paramount Iteration,11,2,0.037988,0.709198
[MO833] Paramount Iteration,15,2,0.037950,0.709124
[MO833] Paramount Iteration,9,2,0.038250,0.708907
[MO833] Paramount Iteration,1,2,0.038393,0.709386
[MO833] Paramount Iteration,8,2,0.037960,0.709052
[MO833] Paramount Iteration,0,2,0.037970,0.710138
[MO833] Paramount Iteration,2,3,0.037397,0.746599
[MO833] Paramount Iteration,3,3,0.037557,0.746714
[MO833] Paramount Iteration,13,3,0.037517,0.746452
[MO833] Paramount Iteration,7,3,0.037495,0.746465
[MO833] Paramount Iteration,6,3,0.037638,0.746512
[MO833] Paramount Iteration,5,3,0.037743,0.746472
[MO833] Paramount Iteration,10,3,0.037454,0.746520
[MO833] Paramount Iteration,1,3,0.037223,0.746669
[MO833] Paramount Iteration,12,3,0.037732,0.746774
[MO833] Paramount Iteration,11,3,0.037478,0.746736
[MO833] Paramount Iteration,15,3,0.037412,0.746588
[MO833] Paramount Iteration,4,3,0.037743,0.746783
[MO833] Paramount Iteration,14,3,0.037611,0.746623
[MO833] Paramount Iteration,9,3,0.037513,0.746495
[MO833] Paramount Iteration,8,3,0.037702,0.746793
[MO833] Paramount Iteration,0,3,0.037455,0.747676
[MO833] Paramount Iteration,5,4,0.190379,0.936880
[MO833] Paramount Iteration,13,4,0.190463,0.936998
[MO833] Paramount Iteration,2,4,0.190745,0.937414
[MO833] Paramount Iteration,3,4,0.190717,0.937449
[MO833] Paramount Iteration,6,4,0.190619,0.937139
[MO833] Paramount Iteration,7,4,0.190565,0.937126
[MO833] Paramount Iteration,4,4,0.190328,0.937151
[MO833] Paramount Iteration,12,4,0.190476,0.937269
[MO833] Paramount Iteration,10,4,0.190752,0.937303
[MO833] Paramount Iteration,15,4,0.190594,0.937256
[MO833] Paramount Iteration,1,4,0.190594,0.937343
[MO833] Paramount Iteration,9,4,0.190436,0.937010
[MO833] Paramount Iteration,14,4,0.190634,0.937273
[MO833] Paramount Iteration,11,4,0.190769,0.937541
[MO833] Paramount Iteration,8,4,0.190415,0.937230
[MO833] Paramount Iteration,0,4,0.190436,0.938191
[MO833] Paramount Iteration,2,5,0.041161,0.978659
[MO833] Paramount Iteration,5,5,0.041420,0.978330
[MO833] Paramount Iteration,13,5,0.041333,0.978416
[MO833] Paramount Iteration,6,5,0.041387,0.978536
[MO833] Paramount Iteration,10,5,0.041149,0.978485
[MO833] Paramount Iteration,14,5,0.041195,0.978477
[MO833] Paramount Iteration,3,5,0.041630,0.979086
[MO833] Paramount Iteration,9,5,0.041218,0.978308
[MO833] Paramount Iteration,1,5,0.041397,0.978803
[MO833] Paramount Iteration,7,5,0.041694,0.978910
[MO833] Paramount Iteration,4,5,0.041776,0.978964
[MO833] Paramount Iteration,12,5,0.041791,0.979077
[MO833] Paramount Iteration,11,5,0.041542,0.979122
[MO833] Paramount Iteration,15,5,0.041738,0.979105
[MO833] Paramount Iteration,8,5,0.041683,0.978933
[MO833] Paramount Iteration,0,5,0.041665,0.979934
[MO833] Paramount Iteration,2,6,0.041901,1.020632
[MO833] Paramount Iteration,5,6,0.041868,1.020225
[MO833] Paramount Iteration,13,6,0.041802,1.020288
[MO833] Paramount Iteration,3,6,0.041549,1.020655
[MO833] Paramount Iteration,4,6,0.041430,1.020429
[MO833] Paramount Iteration,7,6,0.041544,1.020474
[MO833] Paramount Iteration,6,6,0.041888,1.020493
[MO833] Paramount Iteration,12,6,0.041481,1.020580
[MO833] Paramount Iteration,1,6,0.041683,1.020547
[MO833] Paramount Iteration,10,6,0.042156,1.020674
[MO833] Paramount Iteration,15,6,0.041430,1.020599
[MO833] Paramount Iteration,11,6,0.041540,1.020706
[MO833] Paramount Iteration,14,6,0.042088,1.020599
[MO833] Paramount Iteration,9,6,0.042140,1.020530
[MO833] Paramount Iteration,8,6,0.041903,1.020858
[MO833] Paramount Iteration,0,6,0.041458,1.021463
[MO833] Paramount Iteration,3,7,0.041378,1.062040
[MO833] Paramount Iteration,2,7,0.041536,1.062241
[MO833] Paramount Iteration,4,7,0.041432,1.061912
[MO833] Paramount Iteration,5,7,0.041646,1.061899
[MO833] Paramount Iteration,7,7,0.041573,1.062075
[MO833] Paramount Iteration,12,7,0.041492,1.062092
[MO833] Paramount Iteration,11,7,0.041294,1.062088
[MO833] Paramount Iteration,6,7,0.041680,1.062238
[MO833] Paramount Iteration,13,7,0.041866,1.062247
[MO833] Paramount Iteration,10,7,0.041530,1.062226
[MO833] Paramount Iteration,15,7,0.041500,1.062196
[MO833] Paramount Iteration,8,7,0.041123,1.062002
[MO833] Paramount Iteration,14,7,0.041662,1.062270
[MO833] Paramount Iteration,9,7,0.041410,1.062020
[MO833] Paramount Iteration,1,7,0.041872,1.062487
[MO833] Paramount Iteration,0,7,0.041525,1.063009
[MO833] Paramount Iteration,5,8,0.194712,1.256636
[MO833] Paramount Iteration,13,8,0.194431,1.256711
[MO833] Paramount Iteration,2,8,0.194888,1.257161
[MO833] Paramount Iteration,6,8,0.194630,1.256904
[MO833] Paramount Iteration,10,8,0.194626,1.256873
[MO833] Paramount Iteration,14,8,0.194475,1.256781
[MO833] Paramount Iteration,3,8,0.195310,1.257377
[MO833] Paramount Iteration,4,8,0.195182,1.257161
[MO833] Paramount Iteration,9,8,0.194629,1.256728
[MO833] Paramount Iteration,12,8,0.195088,1.257210
[MO833] Paramount Iteration,1,8,0.194603,1.257149
[MO833] Paramount Iteration,7,8,0.195151,1.257257
[MO833] Paramount Iteration,11,8,0.195084,1.257266
[MO833] Paramount Iteration,15,8,0.194939,1.257217
[MO833] Paramount Iteration,8,8,0.195223,1.257258
[MO833] Paramount Iteration,0,8,0.195281,1.258312
[MO833] Paramount Iteration,3,9,0.042318,1.299714
[MO833] Paramount Iteration,5,9,0.042659,1.299323
[MO833] Paramount Iteration,13,9,0.042588,1.299386
[MO833] Paramount Iteration,2,9,0.042713,1.299948
[MO833] Paramount Iteration,4,9,0.042397,1.299596
[MO833] Paramount Iteration,1,9,0.042279,1.299520
[MO833] Paramount Iteration,7,9,0.042343,1.299620
[MO833] Paramount Iteration,12,9,0.042444,1.299673
[MO833] Paramount Iteration,9,9,0.042434,1.299242
[MO833] Paramount Iteration,6,9,0.042839,1.299813
[MO833] Paramount Iteration,11,9,0.042442,1.299746
[MO833] Paramount Iteration,10,9,0.042918,1.299822
[MO833] Paramount Iteration,15,9,0.042481,1.299740
[MO833] Paramount Iteration,8,9,0.042286,1.299567
[MO833] Paramount Iteration,14,9,0.043057,1.299870
[MO833] Paramount Iteration,0,9,0.042108,1.300443
[MO833] Paramount Iteration,2,10,0.042480,1.342462
[MO833] Paramount Iteration,5,10,0.042738,1.342099
[MO833] Paramount Iteration,3,10,0.042750,1.342491
[MO833] Paramount Iteration,13,10,0.042726,1.342193
[MO833] Paramount Iteration,6,10,0.042475,1.342323
[MO833] Paramount Iteration,7,10,0.042693,1.342342
[MO833] Paramount Iteration,12,10,0.042744,1.342435
[MO833] Paramount Iteration,10,10,0.042511,1.342352
[MO833] Paramount Iteration,14,10,0.042364,1.342254
[MO833] Paramount Iteration,4,10,0.042865,1.342494
[MO833] Paramount Iteration,15,10,0.042572,1.342409
[MO833] Paramount Iteration,11,10,0.042740,1.342582
[MO833] Paramount Iteration,9,10,0.042895,1.342210
[MO833] Paramount Iteration,1,10,0.043127,1.342733
[MO833] Paramount Iteration,8,10,0.042889,1.342476
[MO833] Paramount Iteration,0,10,0.043108,1.343575
[MO833] Paramount Iteration,5,11,0.043207,1.385331
[MO833] Paramount Iteration,13,11,0.043058,1.385330
[MO833] Paramount Iteration,2,11,0.043222,1.385759
[MO833] Paramount Iteration,6,11,0.043114,1.385506
[MO833] Paramount Iteration,9,11,0.042926,1.385211
[MO833] Paramount Iteration,14,11,0.043150,1.385435
[MO833] Paramount Iteration,3,11,0.043534,1.386032
[MO833] Paramount Iteration,10,11,0.043224,1.385606
[MO833] Paramount Iteration,7,11,0.043513,1.385863
[MO833] Paramount Iteration,12,11,0.043409,1.385863
[MO833] Paramount Iteration,1,11,0.042991,1.385790
[MO833] Paramount Iteration,4,11,0.043392,1.385922
[MO833] Paramount Iteration,11,11,0.043408,1.386028
[MO833] Paramount Iteration,15,11,0.043505,1.385973
[MO833] Paramount Iteration,8,11,0.043289,1.385784
[MO833] Paramount Iteration,0,11,0.043341,1.386940
[MO833] Paramount Iteration,13,12,0.199561,1.584970
[MO833] Paramount Iteration,5,12,0.199690,1.585049
[MO833] Paramount Iteration,2,12,0.199773,1.585601
[MO833] Paramount Iteration,12,12,0.199399,1.585281
[MO833] Paramount Iteration,10,12,0.199674,1.585310
[MO833] Paramount Iteration,3,12,0.199723,1.585774
[MO833] Paramount Iteration,6,12,0.199872,1.585445
[MO833] Paramount Iteration,4,12,0.199516,1.585477
[MO833] Paramount Iteration,9,12,0.199820,1.585103
[MO833] Paramount Iteration,14,12,0.199850,1.585318
[MO833] Paramount Iteration,7,12,0.199737,1.585621
[MO833] Paramount Iteration,8,12,0.199411,1.585216
[MO833] Paramount Iteration,11,12,0.199580,1.585646
[MO833] Paramount Iteration,1,12,0.199862,1.585736
[MO833] Paramount Iteration,15,12,0.199676,1.585691
[MO833] Paramount Iteration,0,12,0.199494,1.586458
[MO833] Paramount Iteration,3,13,0.043389,1.629180
[MO833] Paramount Iteration,5,13,0.043808,1.628886
[MO833] Paramount Iteration,2,13,0.043634,1.629334
[MO833] Paramount Iteration,7,13,0.043341,1.628981
[MO833] Paramount Iteration,13,13,0.043999,1.629047
[MO833] Paramount Iteration,11,13,0.043367,1.629051
[MO833] Paramount Iteration,4,13,0.043589,1.629118
[MO833] Paramount Iteration,12,13,0.043884,1.629183
[MO833] Paramount Iteration,6,13,0.043703,1.629219
[MO833] Paramount Iteration,15,13,0.043291,1.629023
[MO833] Paramount Iteration,9,13,0.043668,1.628839
[MO833] Paramount Iteration,1,13,0.043403,1.629212
[MO833] Paramount Iteration,10,13,0.043861,1.629202
[MO833] Paramount Iteration,8,13,0.043852,1.629084
[MO833] Paramount Iteration,14,13,0.044051,1.629402
[MO833] Paramount Iteration,0,13,0.043592,1.630073
[MO833] Paramount Iteration,3,14,0.043492,1.672699
[MO833] Paramount Iteration,13,14,0.043521,1.672642
[MO833] Paramount Iteration,2,14,0.043663,1.673029
[MO833] Paramount Iteration,7,14,0.043655,1.672665
[MO833] Paramount Iteration,11,14,0.043510,1.672644
[MO833] Paramount Iteration,5,14,0.043779,1.672691
[MO833] Paramount Iteration,12,14,0.043623,1.672822
[MO833] Paramount Iteration,15,14,0.043555,1.672681
[MO833] Paramount Iteration,6,14,0.043635,1.672889
[MO833] Paramount Iteration,10,14,0.043595,1.672818
[MO833] Paramount Iteration,1,14,0.043555,1.672828
[MO833] Paramount Iteration,9,14,0.043592,1.672496
[MO833] Paramount Iteration,4,14,0.043818,1.672970
[MO833] Paramount Iteration,8,14,0.043675,1.672778
[MO833] Paramount Iteration,14,14,0.043577,1.673002
[MO833] Paramount Iteration,0,14,0.043558,1.673654
[MO833] Paramount Iteration,2,15,0.042880,1.715954
[MO833] Paramount Iteration,5,15,0.042826,1.715546
[MO833] Paramount Iteration,13,15,0.042938,1.715655
[MO833] Paramount Iteration,3,15,0.043381,1.716106
[MO833] Paramount Iteration,12,15,0.042960,1.715799
[MO833] Paramount Iteration,9,15,0.042834,1.715403
[MO833] Paramount Iteration,6,15,0.042919,1.715842
[MO833] Paramount Iteration,7,15,0.043144,1.715835
[MO833] Paramount Iteration,4,15,0.042906,1.715914
[MO833] Paramount Iteration,1,15,0.043115,1.716013
[MO833] Paramount Iteration,8,15,0.042906,1.715704
[MO833] Paramount Iteration,10,15,0.043169,1.716008
[MO833] Paramount Iteration,15,15,0.043205,1.715979
[MO833] Paramount Iteration,14,15,0.042989,1.716012
[MO833] Paramount Iteration,11,15,0.043592,1.716325
[MO833] Paramount Iteration,0,15,0.043237,1.716914
[MO833] Paramount Iteration,1,16,0.199623,1.915700
[MO833] Paramount Iteration,2,16,0.200146,1.916155
[MO833] Paramount Iteration,13,16,0.200138,1.915871
[MO833] Paramount Iteration,5,16,0.200287,1.915860
[MO833] Paramount Iteration,3,16,0.200261,1.916385
[MO833] Paramount Iteration,9,16,0.200243,1.915716
[MO833] Paramount Iteration,10,16,0.200076,1.916117
[MO833] Paramount Iteration,7,16,0.200367,1.916227
[MO833] Paramount Iteration,6,16,0.200437,1.916340
[MO833] Paramount Iteration,4,16,0.200359,1.916311
[MO833] Paramount Iteration,12,16,0.200525,1.916345
[MO833] Paramount Iteration,14,16,0.200287,1.916309
[MO833] Paramount Iteration,11,16,0.200179,1.916547
[MO833] Paramount Iteration,15,16,0.200428,1.916511
[MO833] Paramount Iteration,8,16,0.200569,1.916292
[MO833] Paramount Iteration,0,16,0.200236,1.917174
[MO833] Paramount Iteration,5,17,0.044226,1.960114
[MO833] Paramount Iteration,13,17,0.044289,1.960241
[MO833] Paramount Iteration,2,17,0.044394,1.960625
[MO833] Paramount Iteration,1,17,0.044440,1.960219
[MO833] Paramount Iteration,3,17,0.044432,1.960836
[MO833] Paramount Iteration,9,17,0.044248,1.960038
[MO833] Paramount Iteration,12,17,0.044254,1.960618
[MO833] Paramount Iteration,4,17,0.044320,1.960668
[MO833] Paramount Iteration,6,17,0.044342,1.960714
[MO833] Paramount Iteration,10,17,0.044488,1.960648
[MO833] Paramount Iteration,7,17,0.044457,1.960713
[MO833] Paramount Iteration,8,17,0.044191,1.960505
[MO833] Paramount Iteration,11,17,0.044407,1.960994
[MO833] Paramount Iteration,14,17,0.044694,1.961037
[MO833] Paramount Iteration,15,17,0.044664,1.961211
[MO833] Paramount Iteration,0,17,0.044329,1.961522
[MO833] Paramount Iteration,1,18,0.044829,2.005128
[MO833] Paramount Iteration,13,18,0.044936,2.005256
[MO833] Paramount Iteration,5,18,0.045109,2.005251
[MO833] Paramount Iteration,2,18,0.045004,2.005700
[MO833] Paramount Iteration,3,18,0.044923,2.005777
[MO833] Paramount Iteration,12,18,0.045076,2.005712
[MO833] Paramount Iteration,7,18,0.044988,2.005722
[MO833] Paramount Iteration,9,18,0.045258,2.005364
[MO833] Paramount Iteration,6,18,0.045036,2.005815
[MO833] Paramount Iteration,10,18,0.045108,2.005788
[MO833] Paramount Iteration,4,18,0.045188,2.005893
[MO833] Paramount Iteration,11,18,0.044900,2.005952
[MO833] Paramount Iteration,8,18,0.045300,2.005823
[MO833] Paramount Iteration,15,18,0.044799,2.006102
[MO833] Paramount Iteration,14,18,0.045041,2.006116
[MO833] Paramount Iteration,0,18,0.044867,2.006413
[MO833] Paramount Iteration,3,19,0.044255,2.050048
[MO833] Paramount Iteration,13,19,0.044444,2.049777
[MO833] Paramount Iteration,5,19,0.044506,2.049787
[MO833] Paramount Iteration,2,19,0.044481,2.050250
[MO833] Paramount Iteration,7,19,0.044153,2.049893
[MO833] Paramount Iteration,1,19,0.044608,2.049850
[MO833] Paramount Iteration,12,19,0.044280,2.050011
[MO833] Paramount Iteration,6,19,0.044245,2.050090
[MO833] Paramount Iteration,11,19,0.043997,2.050013
[MO833] Paramount Iteration,4,19,0.044143,2.050075
[MO833] Paramount Iteration,9,19,0.044261,2.049701
[MO833] Paramount Iteration,10,19,0.044297,2.050118
[MO833] Paramount Iteration,8,19,0.044071,2.049914
[MO833] Paramount Iteration,15,19,0.044001,2.050223
[MO833] Paramount Iteration,14,19,0.044325,2.050450
[MO833] Paramount Iteration,0,19,0.044298,2.050734
[MO833] Paramount Iteration,1,20,0.200695,2.250616
[MO833] Paramount Iteration,5,20,0.200977,2.250791
[MO833] Paramount Iteration,13,20,0.201004,2.250857
[MO833] Paramount Iteration,2,20,0.201187,2.251467
[MO833] Paramount Iteration,3,20,0.201438,2.251512
[MO833] Paramount Iteration,9,20,0.201040,2.250815
[MO833] Paramount Iteration,12,20,0.201246,2.251276
[MO833] Paramount Iteration,6,20,0.201212,2.251337
[MO833] Paramount Iteration,7,20,0.201416,2.251337
[MO833] Paramount Iteration,4,20,0.201250,2.251375
[MO833] Paramount Iteration,10,20,0.201253,2.251392
[MO833] Paramount Iteration,8,20,0.201222,2.251156
[MO833] Paramount Iteration,15,20,0.201105,2.251439
[MO833] Paramount Iteration,11,20,0.201514,2.251613
[MO833] Paramount Iteration,14,20,0.200988,2.251461
[MO833] Paramount Iteration,0,20,0.201123,2.251878
[MO833] Paramount Iteration,3,21,0.043717,2.295237
[MO833] Paramount Iteration,2,21,0.044020,2.295573
[MO833] Paramount Iteration,5,21,0.044341,2.295161
[MO833] Paramount Iteration,13,21,0.044342,2.295279
[MO833] Paramount Iteration,11,21,0.043584,2.295236
[MO833] Paramount Iteration,1,21,0.044553,2.295243
[MO833] Paramount Iteration,12,21,0.044080,2.295375
[MO833] Paramount Iteration,9,21,0.044105,2.294993
[MO833] Paramount Iteration,4,21,0.044000,2.295417
[MO833] Paramount Iteration,7,21,0.044094,2.295453
[MO833] Paramount Iteration,10,21,0.044005,2.295431
[MO833] Paramount Iteration,6,21,0.044341,2.295746
[MO833] Paramount Iteration,8,21,0.044138,2.295314
[MO833] Paramount Iteration,15,21,0.044013,2.295548
[MO833] Paramount Iteration,14,21,0.044395,2.295866
[MO833] Paramount Iteration,0,21,0.044199,2.296097
[MO833] Paramount Iteration,5,22,0.044407,2.339597
[MO833] Paramount Iteration,13,22,0.044396,2.339754
[MO833] Paramount Iteration,1,22,0.044372,2.339685
[MO833] Paramount Iteration,2,22,0.044731,2.340339
[MO833] Paramount Iteration,3,22,0.045064,2.340325
[MO833] Paramount Iteration,9,22,0.044589,2.339655
[MO833] Paramount Iteration,12,22,0.044718,2.340111
[MO833] Paramount Iteration,4,22,0.044697,2.340149
[MO833] Paramount Iteration,7,22,0.044818,2.340301
[MO833] Paramount Iteration,10,22,0.044780,2.340233
[MO833] Paramount Iteration,6,22,0.044694,2.340478
[MO833] Paramount Iteration,8,22,0.044758,2.340092
[MO833] Paramount Iteration,11,22,0.045134,2.340466
[MO833] Paramount Iteration,15,22,0.044702,2.340356
[MO833] Paramount Iteration,14,22,0.044540,2.340429
[MO833] Paramount Iteration,0,22,0.044773,2.340888
[MO833] Paramount Iteration,3,23,0.043683,2.384034
[MO833] Paramount Iteration,13,23,0.044016,2.383846
[MO833] Paramount Iteration,2,23,0.043903,2.384287
[MO833] Paramount Iteration,5,23,0.044277,2.383902
[MO833] Paramount Iteration,1,23,0.044086,2.383840
[MO833] Paramount Iteration,12,23,0.043829,2.383958
[MO833] Paramount Iteration,11,23,0.043478,2.383979
[MO833] Paramount Iteration,10,23,0.043789,2.384054
[MO833] Paramount Iteration,7,23,0.043817,2.384149
[MO833] Paramount Iteration,4,23,0.043950,2.384138
[MO833] Paramount Iteration,9,23,0.044012,2.383738
[MO833] Paramount Iteration,15,23,0.043532,2.383992
[MO833] Paramount Iteration,6,23,0.043807,2.384321
[MO833] Paramount Iteration,8,23,0.044007,2.384121
[MO833] Paramount Iteration,14,23,0.043865,2.384312
[MO833] Paramount Iteration,0,23,0.043805,2.384715
[MO833] Paramount Iteration,13,24,0.199679,2.583602
[MO833] Paramount Iteration,5,24,0.199727,2.583659
[MO833] Paramount Iteration,2,24,0.199816,2.584138
[MO833] Paramount Iteration,3,24,0.200105,2.584166
[MO833] Paramount Iteration,12,24,0.199847,2.583838
[MO833] Paramount Iteration,1,24,0.199836,2.583767
[MO833] Paramount Iteration,4,24,0.199742,2.583917
[MO833] Paramount Iteration,9,24,0.199761,2.583582
[MO833] Paramount Iteration,7,24,0.199837,2.584016
[MO833] Paramount Iteration,11,24,0.199962,2.584031
[MO833] Paramount Iteration,10,24,0.199962,2.584033
[MO833] Paramount Iteration,6,24,0.199865,2.584220
[MO833] Paramount Iteration,15,24,0.199988,2.584083
[MO833] Paramount Iteration,8,24,0.199755,2.583899
[MO833] Paramount Iteration,14,24,0.199879,2.584215
[MO833] Paramount Iteration,0,24,0.199894,2.584631
[MO833] Paramount Iteration,5,25,0.043581,2.627267
[MO833] Paramount Iteration,13,25,0.043687,2.627366
[MO833] Paramount Iteration,1,25,0.043372,2.627227
[MO833] Paramount Iteration,3,25,0.043572,2.627746
[MO833] Paramount Iteration,7,25,0.043475,2.627522
[MO833] Paramount Iteration,4,25,0.043643,2.627597
[MO833] Paramount Iteration,12,25,0.043778,2.627634
[MO833] Paramount Iteration,2,25,0.043841,2.628058
[MO833] Paramount Iteration,11,25,0.043543,2.627682
[MO833] Paramount Iteration,15,25,0.043384,2.627570
[MO833] Paramount Iteration,6,25,0.043535,2.627793
[MO833] Paramount Iteration,10,25,0.043793,2.627835
[MO833] Paramount Iteration,9,25,0.043891,2.627548
[MO833] Paramount Iteration,14,25,0.043671,2.627905
[MO833] Paramount Iteration,8,25,0.043916,2.627836
[MO833] Paramount Iteration,0,25,0.043651,2.628316
[MO833] Paramount Iteration,2,26,0.043097,2.671190
[MO833] Paramount Iteration,5,26,0.043612,2.670907
[MO833] Paramount Iteration,3,26,0.043605,2.671378
[MO833] Paramount Iteration,13,26,0.043671,2.671096
[MO833] Paramount Iteration,6,26,0.043300,2.671129
[MO833] Paramount Iteration,7,26,0.043662,2.671213
[MO833] Paramount Iteration,10,26,0.043231,2.671086
[MO833] Paramount Iteration,4,26,0.043596,2.671227
[MO833] Paramount Iteration,9,26,0.043262,2.670893
[MO833] Paramount Iteration,1,26,0.043906,2.671254
[MO833] Paramount Iteration,12,26,0.043684,2.671337
[MO833] Paramount Iteration,11,26,0.043563,2.671335
[MO833] Paramount Iteration,14,26,0.043328,2.671254
[MO833] Paramount Iteration,15,26,0.043598,2.671266
[MO833] Paramount Iteration,8,26,0.043428,2.671284
[MO833] Paramount Iteration,0,26,0.043907,2.672245
[MO833] Paramount Iteration,2,27,0.044492,2.715760
[MO833] Paramount Iteration,5,27,0.044620,2.715554
[MO833] Paramount Iteration,13,27,0.044411,2.715587
[MO833] Paramount Iteration,10,27,0.044463,2.715579
[MO833] Paramount Iteration,3,27,0.044663,2.716057
[MO833] Paramount Iteration,6,27,0.044541,2.715739
[MO833] Paramount Iteration,14,27,0.044283,2.715546
[MO833] Paramount Iteration,4,27,0.044649,2.715911
[MO833] Paramount Iteration,12,27,0.044595,2.715951
[MO833] Paramount Iteration,9,27,0.044627,2.715603
[MO833] Paramount Iteration,7,27,0.044822,2.716058
[MO833] Paramount Iteration,11,27,0.044697,2.716069
[MO833] Paramount Iteration,15,27,0.044646,2.716008
[MO833] Paramount Iteration,1,27,0.044832,2.716149
[MO833] Paramount Iteration,8,27,0.044678,2.715983
[MO833] Paramount Iteration,0,27,0.044740,2.717008
[MO833] Paramount Iteration,3,28,0.203827,2.919903
[MO833] Paramount Iteration,7,28,0.203500,2.919579
[MO833] Paramount Iteration,15,28,0.203461,2.919511
[MO833] Paramount Iteration,4,28,0.203739,2.919687
[MO833] Paramount Iteration,5,28,0.204164,2.919746
[MO833] Paramount Iteration,11,28,0.203583,2.919696
[MO833] Paramount Iteration,2,28,0.204339,2.920165
[MO833] Paramount Iteration,6,28,0.204058,2.919865
[MO833] Paramount Iteration,12,28,0.203878,2.919848
[MO833] Paramount Iteration,10,28,0.204228,2.919838
[MO833] Paramount Iteration,13,28,0.204298,2.919969
[MO833] Paramount Iteration,14,28,0.204330,2.919905
[MO833] Paramount Iteration,1,28,0.204064,2.920274
[MO833] Paramount Iteration,8,28,0.204018,2.920022
[MO833] Paramount Iteration,9,28,0.204358,2.920035
[MO833] Paramount Iteration,0,28,0.203690,2.920719
[MO833] Paramount Iteration,5,29,0.044586,2.964350
[MO833] Paramount Iteration,13,29,0.044496,2.964496
[MO833] Paramount Iteration,2,29,0.044697,2.964899
[MO833] Paramount Iteration,3,29,0.044982,2.964913
[MO833] Paramount Iteration,1,29,0.044121,2.964458
[MO833] Paramount Iteration,7,29,0.045264,2.964873
[MO833] Paramount Iteration,9,29,0.044393,2.964505
[MO833] Paramount Iteration,10,29,0.044938,2.964795
[MO833] Paramount Iteration,6,29,0.045075,2.964976
[MO833] Paramount Iteration,11,29,0.045050,2.964833
[MO833] Paramount Iteration,4,29,0.045208,2.965000
[MO833] Paramount Iteration,12,29,0.045152,2.965030
[MO833] Paramount Iteration,15,29,0.045379,2.964988
[MO833] Paramount Iteration,14,29,0.045113,2.965040
[MO833] Paramount Iteration,8,29,0.044884,2.964940
[MO833] Paramount Iteration,0,29,0.044969,2.965708
[MO833] Paramount Iteration,3,30,0.044268,3.009188
[MO833] Paramount Iteration,7,30,0.043962,3.008865
[MO833] Paramount Iteration,2,30,0.044461,3.009429
[MO833] Paramount Iteration,15,30,0.043795,3.008863
[MO833] Paramount Iteration,5,30,0.044640,3.009018
[MO833] Paramount Iteration,13,30,0.044647,3.009212
[MO833] Paramount Iteration,11,30,0.044253,3.009167
[MO833] Paramount Iteration,6,30,0.044313,3.009321
[MO833] Paramount Iteration,4,30,0.044254,3.009294
[MO833] Paramount Iteration,12,30,0.044322,3.009371
[MO833] Paramount Iteration,1,30,0.044706,3.009257
[MO833] Paramount Iteration,10,30,0.044471,3.009295
[MO833] Paramount Iteration,14,30,0.044237,3.009294
[MO833] Paramount Iteration,9,30,0.044576,3.009160
[MO833] Paramount Iteration,8,30,0.044441,3.009403
[MO833] Paramount Iteration,0,30,0.044325,3.010054
[MO833] Paramount Iteration,13,31,0.044238,3.053531
[MO833] Paramount Iteration,2,31,0.044524,3.053987
[MO833] Paramount Iteration,5,31,0.044646,3.053692
[MO833] Paramount Iteration,10,31,0.044395,3.053712
[MO833] Paramount Iteration,3,31,0.045122,3.054337
[MO833] Paramount Iteration,6,31,0.044581,3.053942
[MO833] Paramount Iteration,9,31,0.044353,3.053596
[MO833] Paramount Iteration,14,31,0.044617,3.053934
[MO833] Paramount Iteration,12,31,0.044850,3.054239
[MO833] Paramount Iteration,1,31,0.044875,3.054202
[MO833] Paramount Iteration,7,31,0.045455,3.054350
[MO833] Paramount Iteration,4,31,0.045029,3.054360
[MO833] Paramount Iteration,11,31,0.045121,3.054355
[MO833] Paramount Iteration,8,31,0.044838,3.054262
[MO833] Paramount Iteration,15,31,0.045602,3.054571
[MO833] Paramount Iteration,0,31,0.045257,3.055332
[MO833] Paramount Iteration,2,32,0.209673,3.263730
[MO833] Paramount Iteration,13,32,0.209718,3.263328
[MO833] Paramount Iteration,6,32,0.209455,3.263466
[MO833] Paramount Iteration,5,32,0.209718,3.263438
[MO833] Paramount Iteration,10,32,0.209685,3.263429
[MO833] Paramount Iteration,14,32,0.209366,3.263333
[MO833] Paramount Iteration,9,32,0.209485,3.263163
[MO833] Paramount Iteration,3,32,0.209669,3.264025
[MO833] Paramount Iteration,7,32,0.209412,3.263782
[MO833] Paramount Iteration,12,32,0.209653,3.263914
[MO833] Paramount Iteration,11,32,0.209469,3.263900
[MO833] Paramount Iteration,15,32,0.209204,3.263821
[MO833] Paramount Iteration,1,32,0.209637,3.263909
[MO833] Paramount Iteration,4,32,0.209600,3.264005
[MO833] Paramount Iteration,8,32,0.209413,3.263699
[MO833] Paramount Iteration,0,32,0.209521,3.264877
[MO833] Paramount Iteration,5,33,0.045656,3.309125
[MO833] Paramount Iteration,13,33,0.045847,3.309261
[MO833] Paramount Iteration,2,33,0.045832,3.309639
[MO833] Paramount Iteration,6,33,0.045799,3.309331
[MO833] Paramount Iteration,14,33,0.045789,3.309155
[MO833] Paramount Iteration,10,33,0.045855,3.309314
[MO833] Paramount Iteration,9,33,0.045884,3.309119
[MO833] Paramount Iteration,3,33,0.045896,3.309942
[MO833] Paramount Iteration,7,33,0.045859,3.309661
[MO833] Paramount Iteration,12,33,0.045913,3.309846
[MO833] Paramount Iteration,15,33,0.045814,3.309676
[MO833] Paramount Iteration,4,33,0.045795,3.309842
[MO833] Paramount Iteration,11,33,0.045887,3.309839
[MO833] Paramount Iteration,1,33,0.045797,3.309821
[MO833] Paramount Iteration,8,33,0.046051,3.309771
[MO833] Paramount Iteration,0,33,0.045963,3.310862
[MO833] Paramount Iteration,2,34,0.045064,3.354774
[MO833] Paramount Iteration,13,34,0.045035,3.354362
[MO833] Paramount Iteration,5,34,0.045355,3.354509
[MO833] Paramount Iteration,6,34,0.045253,3.354647
[MO833] Paramount Iteration,14,34,0.045275,3.354462
[MO833] Paramount Iteration,3,34,0.045156,3.355117
[MO833] Paramount Iteration,9,34,0.045200,3.354394
[MO833] Paramount Iteration,10,34,0.045382,3.354728
[MO833] Paramount Iteration,12,34,0.045059,3.354925
[MO833] Paramount Iteration,7,34,0.045274,3.354955
[MO833] Paramount Iteration,4,34,0.045215,3.355113
[MO833] Paramount Iteration,15,34,0.045274,3.354990
[MO833] Paramount Iteration,1,34,0.045164,3.355063
[MO833] Paramount Iteration,8,34,0.045106,3.354900
[MO833] Paramount Iteration,11,34,0.045364,3.355240
[MO833] Paramount Iteration,0,34,0.045224,3.356110
[MO833] Paramount Iteration,5,35,0.045694,3.400232
[MO833] Paramount Iteration,13,35,0.045819,3.400262
[MO833] Paramount Iteration,2,35,0.045812,3.400654
[MO833] Paramount Iteration,14,35,0.045701,3.400193
[MO833] Paramount Iteration,6,35,0.045710,3.400417
[MO833] Paramount Iteration,10,35,0.045739,3.400499
[MO833] Paramount Iteration,9,35,0.045775,3.400244
[MO833] Paramount Iteration,3,35,0.045920,3.401055
[MO833] Paramount Iteration,7,35,0.045862,3.400836
[MO833] Paramount Iteration,1,35,0.045656,3.400809
[MO833] Paramount Iteration,15,35,0.045783,3.400811
[MO833] Paramount Iteration,4,35,0.045803,3.400960
[MO833] Paramount Iteration,12,35,0.046057,3.401002
[MO833] Paramount Iteration,11,35,0.045755,3.401063
[MO833] Paramount Iteration,8,35,0.045933,3.400854
[MO833] Paramount Iteration,0,35,0.045858,3.401990
[MO833] Paramount Iteration,2,36,0.207310,3.608033
[MO833] Paramount Iteration,6,36,0.207234,3.607713
[MO833] Paramount Iteration,5,36,0.207303,3.607563
[MO833] Paramount Iteration,13,36,0.207321,3.607671
[MO833] Paramount Iteration,10,36,0.207149,3.607679
[MO833] Paramount Iteration,14,36,0.207387,3.607610
[MO833] Paramount Iteration,7,36,0.207119,3.607974
[MO833] Paramount Iteration,3,36,0.207273,3.608347
[MO833] Paramount Iteration,4,36,0.207040,3.608041
[MO833] Paramount Iteration,9,36,0.207356,3.607676
[MO833] Paramount Iteration,12,36,0.207094,3.608117
[MO833] Paramount Iteration,15,36,0.207116,3.607967
[MO833] Paramount Iteration,11,36,0.207035,3.608141
[MO833] Paramount Iteration,8,36,0.207050,3.607926
[MO833] Paramount Iteration,1,36,0.207364,3.608237
[MO833] Paramount Iteration,0,36,0.207021,3.609034
[MO833] Paramount Iteration,2,37,0.045326,3.653435
[MO833] Paramount Iteration,5,37,0.045376,3.652967
[MO833] Paramount Iteration,3,37,0.045139,3.653507
[MO833] Paramount Iteration,13,37,0.045369,3.653134
[MO833] Paramount Iteration,10,37,0.045379,3.653086
[MO833] Paramount Iteration,6,37,0.045412,3.653192
[MO833] Paramount Iteration,7,37,0.045253,3.653248
[MO833] Paramount Iteration,12,37,0.045171,3.653308
[MO833] Paramount Iteration,9,37,0.045237,3.652988
[MO833] Paramount Iteration,11,37,0.045174,3.653356
[MO833] Paramount Iteration,14,37,0.045549,3.653186
[MO833] Paramount Iteration,4,37,0.045308,3.653388
[MO833] Paramount Iteration,15,37,0.045232,3.653236
[MO833] Paramount Iteration,8,37,0.045207,3.653154
[MO833] Paramount Iteration,1,37,0.045256,3.653546
[MO833] Paramount Iteration,0,37,0.045165,3.654223
[MO833] Paramount Iteration,2,38,0.045220,3.698728
[MO833] Paramount Iteration,6,38,0.045122,3.698380
[MO833] Paramount Iteration,5,38,0.045301,3.698298
[MO833] Paramount Iteration,3,38,0.045224,3.698747
[MO833] Paramount Iteration,7,38,0.045103,3.698380
[MO833] Paramount Iteration,13,38,0.045276,3.698530
[MO833] Paramount Iteration,10,38,0.045377,3.698492
[MO833] Paramount Iteration,14,38,0.045129,3.698344
[MO833] Paramount Iteration,4,38,0.045160,3.698585
[MO833] Paramount Iteration,15,38,0.045157,3.698484
[MO833] Paramount Iteration,11,38,0.045225,3.698621
[MO833] Paramount Iteration,12,38,0.045357,3.698708
[MO833] Paramount Iteration,9,38,0.045396,3.698459
[MO833] Paramount Iteration,8,38,0.045436,3.698608
[MO833] Paramount Iteration,1,38,0.045321,3.698929
[MO833] Paramount Iteration,0,38,0.045367,3.699613
[MO833] Paramount Iteration,5,39,0.045753,3.744082
[MO833] Paramount Iteration,13,39,0.045492,3.744114
[MO833] Paramount Iteration,2,39,0.045736,3.744537
[MO833] Paramount Iteration,3,39,0.045929,3.744683
[MO833] Paramount Iteration,6,39,0.045877,3.744326
[MO833] Paramount Iteration,10,39,0.045703,3.744225
[MO833] Paramount Iteration,14,39,0.045795,3.744181
[MO833] Paramount Iteration,9,39,0.045593,3.744133
[MO833] Paramount Iteration,7,39,0.046195,3.744600
[MO833] Paramount Iteration,12,39,0.045883,3.744609
[MO833] Paramount Iteration,11,39,0.045945,3.744613
[MO833] Paramount Iteration,4,39,0.046019,3.744640
[MO833] Paramount Iteration,1,39,0.045597,3.744588
[MO833] Paramount Iteration,15,39,0.046127,3.744676
[MO833] Paramount Iteration,8,39,0.046015,3.744656
[MO833] Paramount Iteration,0,39,0.046034,3.745669
[MO833] Paramount Iteration,5,40,0.213865,3.957974
[MO833] Paramount Iteration,13,40,0.213819,3.958019
[MO833] Paramount Iteration,2,40,0.213893,3.958499
[MO833] Paramount Iteration,6,40,0.213770,3.958161
[MO833] Paramount Iteration,10,40,0.213795,3.958049
[MO833] Paramount Iteration,3,40,0.214026,3.958728
[MO833] Paramount Iteration,14,40,0.213904,3.958116
[MO833] Paramount Iteration,7,40,0.213817,3.958438
[MO833] Paramount Iteration,12,40,0.213863,3.958493
[MO833] Paramount Iteration,9,40,0.213869,3.958086
[MO833] Paramount Iteration,11,40,0.213859,3.958515
[MO833] Paramount Iteration,4,40,0.213888,3.958565
[MO833] Paramount Iteration,15,40,0.213890,3.958605
[MO833] Paramount Iteration,1,40,0.213977,3.958667
[MO833] Paramount Iteration,8,40,0.213840,3.958518
[MO833] Paramount Iteration,0,40,0.213895,3.959587
[MO833] Paramount Iteration,2,41,0.046155,4.004729
[MO833] Paramount Iteration,13,41,0.046313,4.004417
[MO833] Paramount Iteration,5,41,0.046432,4.004433
[MO833] Paramount Iteration,6,41,0.046324,4.004551
[MO833] Paramount Iteration,10,41,0.046358,4.004437
[MO833] Paramount Iteration,3,41,0.046315,4.005062
[MO833] Paramount Iteration,14,41,0.046410,4.004557
[MO833] Paramount Iteration,12,41,0.046324,4.004837
[MO833] Paramount Iteration,7,41,0.046431,4.004889
[MO833] Paramount Iteration,9,41,0.046372,4.004532
[MO833] Paramount Iteration,11,41,0.046321,4.004874
[MO833] Paramount Iteration,4,41,0.046343,4.004948
[MO833] Paramount Iteration,15,41,0.046312,4.004960
[MO833] Paramount Iteration,8,41,0.046353,4.004891
[MO833] Paramount Iteration,1,41,0.046488,4.005247
[MO833] Paramount Iteration,0,41,0.046520,4.006133
[MO833] Paramount Iteration,2,42,0.046496,4.051297
[MO833] Paramount Iteration,5,42,0.046398,4.050859
[MO833] Paramount Iteration,13,42,0.046457,4.050955
[MO833] Paramount Iteration,10,42,0.046490,4.050957
[MO833] Paramount Iteration,3,42,0.046505,4.051587
[MO833] Paramount Iteration,6,42,0.046648,4.051265
[MO833] Paramount Iteration,4,42,0.046346,4.051334
[MO833] Paramount Iteration,9,42,0.046374,4.050978
[MO833] Paramount Iteration,12,42,0.046580,4.051436
[MO833] Paramount Iteration,14,42,0.046604,4.051193
[MO833] Paramount Iteration,7,42,0.046572,4.051481
[MO833] Paramount Iteration,11,42,0.046545,4.051481
[MO833] Paramount Iteration,1,42,0.046347,4.051655
[MO833] Paramount Iteration,8,42,0.046465,4.051375
[MO833] Paramount Iteration,15,42,0.046805,4.051801
[MO833] Paramount Iteration,0,42,0.046426,4.052583
[MO833] Paramount Iteration,5,43,0.046120,4.097005
[MO833] Paramount Iteration,13,43,0.046002,4.097040
[MO833] Paramount Iteration,2,43,0.046233,4.097597
[MO833] Paramount Iteration,3,43,0.046063,4.097670
[MO833] Paramount Iteration,12,43,0.045891,4.097346
[MO833] Paramount Iteration,6,43,0.046065,4.097390
[MO833] Paramount Iteration,4,43,0.045982,4.097367
[MO833] Paramount Iteration,7,43,0.045973,4.097473
[MO833] Paramount Iteration,10,43,0.046335,4.097323
[MO833] Paramount Iteration,11,43,0.046030,4.097551
[MO833] Paramount Iteration,9,43,0.046219,4.097275
[MO833] Paramount Iteration,14,43,0.046329,4.097555
[MO833] Paramount Iteration,15,43,0.045743,4.097608
[MO833] Paramount Iteration,1,43,0.045971,4.097690
[MO833] Paramount Iteration,8,43,0.046129,4.097525
[MO833] Paramount Iteration,0,43,0.045858,4.098468
[MO833] Paramount Iteration,13,44,0.212256,4.309376
[MO833] Paramount Iteration,5,44,0.212352,4.309384
[MO833] Paramount Iteration,2,44,0.212276,4.309942
[MO833] Paramount Iteration,10,44,0.212167,4.309520
[MO833] Paramount Iteration,6,44,0.212268,4.309726
[MO833] Paramount Iteration,9,44,0.212019,4.309373
[MO833] Paramount Iteration,14,44,0.212009,4.309596
[MO833] Paramount Iteration,3,44,0.212603,4.310289
[MO833] Paramount Iteration,12,44,0.212623,4.309988
[MO833] Paramount Iteration,7,44,0.212631,4.310125
[MO833] Paramount Iteration,4,44,0.212689,4.310090
[MO833] Paramount Iteration,11,44,0.212537,4.310123
[MO833] Paramount Iteration,1,44,0.212273,4.310062
[MO833] Paramount Iteration,15,44,0.212424,4.310154
[MO833] Paramount Iteration,8,44,0.212505,4.310050
[MO833] Paramount Iteration,0,44,0.212639,4.311186
[MO833] Paramount Iteration,2,45,0.046064,4.356084
[MO833] Paramount Iteration,5,45,0.046231,4.355643
[MO833] Paramount Iteration,13,45,0.046254,4.355709
[MO833] Paramount Iteration,6,45,0.046247,4.356042
[MO833] Paramount Iteration,10,45,0.046372,4.355923
[MO833] Paramount Iteration,14,45,0.046187,4.355813
[MO833] Paramount Iteration,3,45,0.046175,4.356485
[MO833] Paramount Iteration,9,45,0.046245,4.355692
[MO833] Paramount Iteration,12,45,0.046211,4.356219
[MO833] Paramount Iteration,4,45,0.046067,4.356213
[MO833] Paramount Iteration,7,45,0.046251,4.356396
[MO833] Paramount Iteration,15,45,0.046142,4.356338
[MO833] Paramount Iteration,11,45,0.046370,4.356533
[MO833] Paramount Iteration,1,45,0.046371,4.356511
[MO833] Paramount Iteration,8,45,0.046250,4.356323
[MO833] Paramount Iteration,0,45,0.046187,4.357451
[MO833] Paramount Iteration,5,46,0.046001,4.401709
[MO833] Paramount Iteration,2,46,0.046096,4.402236
[MO833] Paramount Iteration,3,46,0.045751,4.402257
[MO833] Paramount Iteration,13,46,0.046105,4.401896
[MO833] Paramount Iteration,6,46,0.045912,4.402024
[MO833] Paramount Iteration,4,46,0.045703,4.401970
[MO833] Paramount Iteration,7,46,0.045633,4.402050
[MO833] Paramount Iteration,12,46,0.045858,4.402097
[MO833] Paramount Iteration,10,46,0.046085,4.402040
[MO833] Paramount Iteration,11,46,0.045658,4.402247
[MO833] Paramount Iteration,15,46,0.045767,4.402148
[MO833] Paramount Iteration,14,46,0.046302,4.402147
[MO833] Paramount Iteration,9,46,0.046254,4.402020
[MO833] Paramount Iteration,8,46,0.045795,4.402142
[MO833] Paramount Iteration,1,46,0.045900,4.402466
[MO833] Paramount Iteration,0,46,0.045701,4.403232
[MO833] Paramount Iteration,3,47,0.045707,4.447971
[MO833] Paramount Iteration,2,47,0.045976,4.448280
[MO833] Paramount Iteration,7,47,0.045875,4.447934
[MO833] Paramount Iteration,4,47,0.045851,4.447874
[MO833] Paramount Iteration,5,47,0.046099,4.447870
[MO833] Paramount Iteration,11,47,0.045671,4.447951
[MO833] Paramount Iteration,15,47,0.045628,4.447877
[MO833] Paramount Iteration,6,47,0.046024,4.448119
[MO833] Paramount Iteration,10,47,0.046054,4.448124
[MO833] Paramount Iteration,12,47,0.046101,4.448218
[MO833] Paramount Iteration,13,47,0.046248,4.448231
[MO833] Paramount Iteration,14,47,0.045947,4.448103
[MO833] Paramount Iteration,9,47,0.045888,4.447990
[MO833] Paramount Iteration,1,47,0.045801,4.448332
[MO833] Paramount Iteration,8,47,0.046133,4.448294
[MO833] Paramount Iteration,0,47,0.045900,4.449212
[MO833] Paramount Iteration,3,48,0.208297,4.656296
[MO833] Paramount Iteration,7,48,0.208084,4.656047
[MO833] Paramount Iteration,13,48,0.207721,4.656039
[MO833] Paramount Iteration,15,48,0.207890,4.655867
[MO833] Paramount Iteration,5,48,0.208090,4.656023
[MO833] Paramount Iteration,12,48,0.207893,4.656137
[MO833] Paramount Iteration,11,48,0.208038,4.656055
[MO833] Paramount Iteration,2,48,0.208245,4.656558
[MO833] Paramount Iteration,4,48,0.208261,4.656154
[MO833] Paramount Iteration,6,48,0.208104,4.656259
[MO833] Paramount Iteration,10,48,0.208030,4.656175
[MO833] Paramount Iteration,14,48,0.207940,4.656064
[MO833] Paramount Iteration,9,48,0.208112,4.656187
[MO833] Paramount Iteration,8,48,0.207907,4.656224
[MO833] Paramount Iteration,1,48,0.208345,4.656729
[MO833] Paramount Iteration,0,48,0.207955,4.657241
[MO833] Paramount Iteration,13,49,0.046013,4.702135
[MO833] Paramount Iteration,2,49,0.046009,4.702601
[MO833] Paramount Iteration,5,49,0.046061,4.702147
[MO833] Paramount Iteration,6,49,0.046049,4.702347
[MO833] Paramount Iteration,10,49,0.046030,4.702223
[MO833] Paramount Iteration,3,49,0.046570,4.702895
[MO833] Paramount Iteration,14,49,0.046216,4.702303
[MO833] Paramount Iteration,7,49,0.046547,4.702624
[MO833] Paramount Iteration,9,49,0.045887,4.702152
[MO833] Paramount Iteration,12,49,0.046502,4.702657
[MO833] Paramount Iteration,4,49,0.046465,4.702658
[MO833] Paramount Iteration,11,49,0.046582,4.702722
[MO833] Paramount Iteration,1,49,0.045988,4.702782
[MO833] Paramount Iteration,15,49,0.046762,4.702751
[MO833] Paramount Iteration,8,49,0.046494,4.702726
[MO833] Paramount Iteration,0,49,0.046568,4.703884
[MO833] Paramount Iteration,2,50,0.045573,4.748241
[MO833] Paramount Iteration,5,50,0.045690,4.747900
[MO833] Paramount Iteration,13,50,0.045780,4.747995
[MO833] Paramount Iteration,14,50,0.045612,4.747946
[MO833] Paramount Iteration,3,50,0.045728,4.748643
[MO833] Paramount Iteration,10,50,0.045882,4.748137
[MO833] Paramount Iteration,6,50,0.045854,4.748264
[MO833] Paramount Iteration,4,50,0.045732,4.748432
[MO833] Paramount Iteration,9,50,0.045841,4.748064
[MO833] Paramount Iteration,12,50,0.045856,4.748533
[MO833] Paramount Iteration,7,50,0.046018,4.748662
[MO833] Paramount Iteration,11,50,0.045922,4.748682
[MO833] Paramount Iteration,15,50,0.045773,4.748564
[MO833] Paramount Iteration,1,50,0.045979,4.748822
[MO833] Paramount Iteration,8,50,0.045958,4.748705
[MO833] Paramount Iteration,0,50,0.045909,4.749870
[MO833] Paramount Iteration,13,51,0.047245,4.795319
[MO833] Paramount Iteration,2,51,0.047530,4.795824
[MO833] Paramount Iteration,5,51,0.047403,4.795360
[MO833] Paramount Iteration,10,51,0.047295,4.795464
[MO833] Paramount Iteration,9,51,0.047217,4.795368
[MO833] Paramount Iteration,14,51,0.047583,4.795559
[MO833] Paramount Iteration,3,51,0.047581,4.796243
[MO833] Paramount Iteration,6,51,0.047460,4.795790
[MO833] Paramount Iteration,12,51,0.047427,4.795979
[MO833] Paramount Iteration,4,51,0.047519,4.795993
[MO833] Paramount Iteration,1,51,0.047180,4.796066
[MO833] Paramount Iteration,7,51,0.047561,4.796243
[MO833] Paramount Iteration,11,51,0.047480,4.796199
[MO833] Paramount Iteration,8,51,0.047225,4.795952
[MO833] Paramount Iteration,15,51,0.047566,4.796173
[MO833] Paramount Iteration,0,51,0.047118,4.797073
[MO833] Paramount Iteration,13,52,0.214537,5.009943
[MO833] Paramount Iteration,5,52,0.214566,5.009987
[MO833] Paramount Iteration,2,52,0.214601,5.010479
[MO833] Paramount Iteration,6,52,0.214343,5.010198
[MO833] Paramount Iteration,12,52,0.214272,5.010273
[MO833] Paramount Iteration,10,52,0.214685,5.010179
[MO833] Paramount Iteration,3,52,0.214464,5.010727
[MO833] Paramount Iteration,9,52,0.214578,5.010023
[MO833] Paramount Iteration,14,52,0.214598,5.010185
[MO833] Paramount Iteration,7,52,0.214208,5.010471
[MO833] Paramount Iteration,4,52,0.214365,5.010399
[MO833] Paramount Iteration,8,52,0.214354,5.010326
[MO833] Paramount Iteration,11,52,0.214365,5.010606
[MO833] Paramount Iteration,1,52,0.214524,5.010655
[MO833] Paramount Iteration,15,52,0.214396,5.010614
[MO833] Paramount Iteration,0,52,0.214280,5.011449
[MO833] Paramount Iteration,2,53,0.046012,5.056567
[MO833] Paramount Iteration,13,53,0.046282,5.056302
[MO833] Paramount Iteration,3,53,0.045972,5.056719
[MO833] Paramount Iteration,6,53,0.046052,5.056319
[MO833] Paramount Iteration,5,53,0.046205,5.056260
[MO833] Paramount Iteration,7,53,0.045980,5.056473
[MO833] Paramount Iteration,10,53,0.046153,5.056364
[MO833] Paramount Iteration,12,53,0.046210,5.056502
[MO833] Paramount Iteration,4,53,0.046162,5.056604
[MO833] Paramount Iteration,9,53,0.046181,5.056276
[MO833] Paramount Iteration,14,53,0.046206,5.056423
[MO833] Paramount Iteration,11,53,0.046078,5.056725
[MO833] Paramount Iteration,1,53,0.046002,5.056719
[MO833] Paramount Iteration,15,53,0.046004,5.056662
[MO833] Paramount Iteration,8,53,0.046174,5.056520
[MO833] Paramount Iteration,0,53,0.045900,5.057423
[MO833] Paramount Iteration,5,54,0.045458,5.101780
[MO833] Paramount Iteration,13,54,0.045437,5.101815
[MO833] Paramount Iteration,1,54,0.045123,5.101907
[MO833] Paramount Iteration,2,54,0.045799,5.102437
[MO833] Paramount Iteration,3,54,0.045726,5.102464
[MO833] Paramount Iteration,12,54,0.045618,5.102139
[MO833] Paramount Iteration,9,54,0.045426,5.101775
[MO833] Paramount Iteration,4,54,0.045519,5.102167
[MO833] Paramount Iteration,6,54,0.045886,5.102268
[MO833] Paramount Iteration,10,54,0.045773,5.102167
[MO833] Paramount Iteration,7,54,0.045768,5.102276
[MO833] Paramount Iteration,11,54,0.045598,5.102362
[MO833] Paramount Iteration,8,54,0.045659,5.102209
[MO833] Paramount Iteration,14,54,0.046022,5.102476
[MO833] Paramount Iteration,15,54,0.045805,5.102507
[MO833] Paramount Iteration,0,54,0.045401,5.102896
[MO833] Paramount Iteration,3,55,0.044898,5.147370
[MO833] Paramount Iteration,5,55,0.045250,5.147097
[MO833] Paramount Iteration,13,55,0.045300,5.147189
[MO833] Paramount Iteration,2,55,0.045164,5.147674
[MO833] Paramount Iteration,7,55,0.045005,5.147294
[MO833] Paramount Iteration,4,55,0.045060,5.147269
[MO833] Paramount Iteration,1,55,0.045238,5.147202
[MO833] Paramount Iteration,12,55,0.045260,5.147417
[MO833] Paramount Iteration,6,55,0.045178,5.147509
[MO833] Paramount Iteration,9,55,0.045279,5.147133
[MO833] Paramount Iteration,11,55,0.045041,5.147436
[MO833] Paramount Iteration,10,55,0.045329,5.147527
[MO833] Paramount Iteration,8,55,0.045227,5.147456
[MO833] Paramount Iteration,15,55,0.045016,5.147623
[MO833] Paramount Iteration,14,55,0.045365,5.147869
[MO833] Paramount Iteration,0,55,0.045206,5.148171
[MO833] Paramount Iteration,13,56,0.206269,5.353519
[MO833] Paramount Iteration,5,56,0.206562,5.353720
[MO833] Paramount Iteration,2,56,0.206549,5.354256
[MO833] Paramount Iteration,6,56,0.206422,5.353963
[MO833] Paramount Iteration,14,56,0.205861,5.353753
[MO833] Paramount Iteration,9,56,0.206412,5.353626
[MO833] Paramount Iteration,10,56,0.206360,5.353906
[MO833] Paramount Iteration,3,56,0.207105,5.354501
[MO833] Paramount Iteration,12,56,0.206668,5.354104
[MO833] Paramount Iteration,7,56,0.206942,5.354263
[MO833] Paramount Iteration,4,56,0.206973,5.354281
[MO833] Paramount Iteration,1,56,0.207020,5.354313
[MO833] Paramount Iteration,15,56,0.206556,5.354281
[MO833] Paramount Iteration,11,56,0.206884,5.354407
[MO833] Paramount Iteration,8,56,0.206675,5.354154
[MO833] Paramount Iteration,0,56,0.207067,5.355307
[MO833] Paramount Iteration,13,57,0.046233,5.399827
[MO833] Paramount Iteration,5,57,0.046071,5.399859
[MO833] Paramount Iteration,2,57,0.046151,5.400483
[MO833] Paramount Iteration,9,57,0.046030,5.399728
[MO833] Paramount Iteration,6,57,0.046133,5.400162
[MO833] Paramount Iteration,14,57,0.046239,5.400024
[MO833] Paramount Iteration,3,57,0.046220,5.400742
[MO833] Paramount Iteration,10,57,0.046348,5.400285
[MO833] Paramount Iteration,12,57,0.046294,5.400417
[MO833] Paramount Iteration,1,57,0.046010,5.400381
[MO833] Paramount Iteration,7,57,0.046270,5.400553
[MO833] Paramount Iteration,4,57,0.046181,5.400522
[MO833] Paramount Iteration,8,57,0.046149,5.400324
[MO833] Paramount Iteration,11,57,0.046211,5.400660
[MO833] Paramount Iteration,15,57,0.046324,5.400649
[MO833] Paramount Iteration,0,57,0.046074,5.401456
[MO833] Paramount Iteration,2,58,0.045517,5.446056
[MO833] Paramount Iteration,5,58,0.045773,5.445695
[MO833] Paramount Iteration,13,58,0.045864,5.445753
[MO833] Paramount Iteration,3,58,0.045639,5.446400
[MO833] Paramount Iteration,6,58,0.045744,5.445969
[MO833] Paramount Iteration,9,58,0.045838,5.445629
[MO833] Paramount Iteration,14,58,0.045718,5.445772
[MO833] Paramount Iteration,10,58,0.045598,5.445955
[MO833] Paramount Iteration,4,58,0.045660,5.446226
[MO833] Paramount Iteration,12,58,0.045819,5.446255
[MO833] Paramount Iteration,7,58,0.045724,5.446330
[MO833] Paramount Iteration,11,58,0.045660,5.446363
[MO833] Paramount Iteration,15,58,0.045570,5.446263
[MO833] Paramount Iteration,8,58,0.045728,5.446095
[MO833] Paramount Iteration,1,58,0.045950,5.446399
[MO833] Paramount Iteration,0,58,0.045697,5.447228
[MO833] Paramount Iteration,5,59,0.046200,5.491953
[MO833] Paramount Iteration,13,59,0.046139,5.491975
[MO833] Paramount Iteration,2,59,0.046334,5.492461
[MO833] Paramount Iteration,9,59,0.046054,5.491753
[MO833] Paramount Iteration,6,59,0.046143,5.492176
[MO833] Paramount Iteration,10,59,0.046057,5.492083
[MO833] Paramount Iteration,14,59,0.046275,5.492078
[MO833] Paramount Iteration,3,59,0.046356,5.492775
[MO833] Paramount Iteration,12,59,0.046233,5.492508
[MO833] Paramount Iteration,4,59,0.046294,5.492540
[MO833] Paramount Iteration,8,59,0.046078,5.492214
[MO833] Paramount Iteration,7,59,0.046235,5.492620
[MO833] Paramount Iteration,11,59,0.046145,5.492552
[MO833] Paramount Iteration,15,59,0.046305,5.492611
[MO833] Paramount Iteration,1,59,0.046205,5.492673
[MO833] Paramount Iteration,0,59,0.046230,5.493531
[MO833] Paramount Iteration,13,60,0.211525,5.703580
[MO833] Paramount Iteration,5,60,0.211593,5.703611
[MO833] Paramount Iteration,12,60,0.211185,5.703713
[MO833] Paramount Iteration,2,60,0.211660,5.704178
[MO833] Paramount Iteration,3,60,0.211409,5.704203
[MO833] Paramount Iteration,6,60,0.211650,5.703891
[MO833] Paramount Iteration,7,60,0.211256,5.703931
[MO833] Paramount Iteration,9,60,0.211735,5.703554
[MO833] Paramount Iteration,10,60,0.211639,5.703794
[MO833] Paramount Iteration,4,60,0.211373,5.703933
[MO833] Paramount Iteration,11,60,0.211360,5.703969
[MO833] Paramount Iteration,1,60,0.211236,5.704006
[MO833] Paramount Iteration,8,60,0.211507,5.703764
[MO833] Paramount Iteration,14,60,0.211783,5.703892
[MO833] Paramount Iteration,15,60,0.211435,5.704087
[MO833] Paramount Iteration,0,60,0.211174,5.704784
[MO833] Paramount Iteration,13,61,0.045682,5.749346
[MO833] Paramount Iteration,2,61,0.045549,5.749813
[MO833] Paramount Iteration,6,61,0.045605,5.749566
[MO833] Paramount Iteration,5,61,0.045851,5.749533
[MO833] Paramount Iteration,10,61,0.045662,5.749533
[MO833] Paramount Iteration,3,61,0.045961,5.750172
[MO833] Paramount Iteration,14,61,0.045627,5.749549
[MO833] Paramount Iteration,9,61,0.045814,5.749439
[MO833] Paramount Iteration,12,61,0.046153,5.749886
[MO833] Paramount Iteration,7,61,0.046087,5.750027
[MO833] Paramount Iteration,1,61,0.045885,5.749974
[MO833] Paramount Iteration,11,61,0.046059,5.750101
[MO833] Paramount Iteration,4,61,0.046253,5.750206
[MO833] Paramount Iteration,8,61,0.046173,5.749992
[MO833] Paramount Iteration,15,61,0.046145,5.750268
[MO833] Paramount Iteration,0,61,0.046324,5.751183
[MO833] Paramount Iteration,13,62,0.046404,5.795812
[MO833] Paramount Iteration,5,62,0.046203,5.795806
[MO833] Paramount Iteration,1,62,0.045882,5.795905
[MO833] Paramount Iteration,2,62,0.046526,5.796398
[MO833] Paramount Iteration,3,62,0.046236,5.796429
[MO833] Paramount Iteration,12,62,0.046241,5.796146
[MO833] Paramount Iteration,6,62,0.046571,5.796204
[MO833] Paramount Iteration,7,62,0.046097,5.796183
[MO833] Paramount Iteration,4,62,0.045981,5.796209
[MO833] Paramount Iteration,9,62,0.046390,5.795906
[MO833] Paramount Iteration,10,62,0.046629,5.796241
[MO833] Paramount Iteration,11,62,0.046206,5.796369
[MO833] Paramount Iteration,14,62,0.046725,5.796307
[MO833] Paramount Iteration,15,62,0.045986,5.796319
[MO833] Paramount Iteration,8,62,0.046265,5.796313
[MO833] Paramount Iteration,0,62,0.045810,5.797068
[MO833] Paramount Iteration,5,63,0.045486,5.841359
[MO833] Paramount Iteration,13,63,0.045491,5.841368
[MO833] Paramount Iteration,2,63,0.045334,5.841805
[MO833] Paramount Iteration,3,63,0.045489,5.841926
[MO833] Paramount Iteration,9,63,0.045332,5.841313
[MO833] Paramount Iteration,6,63,0.045534,5.841746
[MO833] Paramount Iteration,12,63,0.045571,5.841735
[MO833] Paramount Iteration,10,63,0.045323,5.841631
[MO833] Paramount Iteration,7,63,0.045567,5.841829
[MO833] Paramount Iteration,11,63,0.045319,5.841754
[MO833] Paramount Iteration,1,63,0.045772,5.841756
[MO833] Paramount Iteration,4,63,0.045662,5.841891
[MO833] Paramount Iteration,15,63,0.045338,5.841754
[MO833] Paramount Iteration,14,63,0.045526,5.841842
[MO833] Paramount Iteration,8,63,0.045465,5.841798
[MO833] Paramount Iteration,0,63,0.045666,5.842804
[MO833] Paramount Iteration,5,64,0.210515,6.051939
[MO833] Paramount Iteration,13,64,0.210540,6.051987
[MO833] Paramount Iteration,9,64,0.210277,6.051665
[MO833] Paramount Iteration,1,64,0.210106,6.051924
[MO833] Paramount Iteration,3,64,0.210687,6.052631
[MO833] Paramount Iteration,11,64,0.210381,6.052178
[MO833] Paramount Iteration,7,64,0.210524,6.052387
[MO833] Paramount Iteration,12,64,0.210617,6.052371
[MO833] Paramount Iteration,2,64,0.210943,6.052802
[MO833] Paramount Iteration,6,64,0.210711,6.052483
[MO833] Paramount Iteration,4,64,0.210482,6.052397
[MO833] Paramount Iteration,10,64,0.210606,6.052307
[MO833] Paramount Iteration,8,64,0.210363,6.052181
[MO833] Paramount Iteration,15,64,0.210762,6.052614
[MO833] Paramount Iteration,14,64,0.210874,6.052733
[MO833] Paramount Iteration,0,64,0.210185,6.053066
[MO833] Paramount Iteration,3,65,0.045671,6.098330
[MO833] Paramount Iteration,13,65,0.046052,6.098116
[MO833] Paramount Iteration,5,65,0.046146,6.098152
[MO833] Paramount Iteration,7,65,0.045773,6.098245
[MO833] Paramount Iteration,2,65,0.045864,6.098697
[MO833] Paramount Iteration,1,65,0.046162,6.098211
[MO833] Paramount Iteration,9,65,0.046238,6.097975
[MO833] Paramount Iteration,12,65,0.046011,6.098402
[MO833] Paramount Iteration,11,65,0.046045,6.098305
[MO833] Paramount Iteration,6,65,0.045949,6.098448
[MO833] Paramount Iteration,4,65,0.045989,6.098407
[MO833] Paramount Iteration,10,65,0.046128,6.098479
[MO833] Paramount Iteration,8,65,0.046091,6.098293
[MO833] Paramount Iteration,15,65,0.045778,6.098486
[MO833] Paramount Iteration,14,65,0.046031,6.098785
[MO833] Paramount Iteration,0,65,0.046076,6.099215
[MO833] Paramount Iteration,3,66,0.046622,6.144978
[MO833] Paramount Iteration,13,66,0.046362,6.144537
[MO833] Paramount Iteration,2,66,0.046350,6.145082
[MO833] Paramount Iteration,5,66,0.046437,6.144651
[MO833] Paramount Iteration,12,66,0.046370,6.144791
[MO833] Paramount Iteration,1,66,0.046404,6.144700
[MO833] Paramount Iteration,7,66,0.046533,6.144861
[MO833] Paramount Iteration,9,66,0.046449,6.144490
[MO833] Paramount Iteration,4,66,0.046460,6.144886
[MO833] Paramount Iteration,6,66,0.046516,6.144984
[MO833] Paramount Iteration,10,66,0.046411,6.144939
[MO833] Paramount Iteration,11,66,0.046573,6.144947
[MO833] Paramount Iteration,8,66,0.046481,6.144794
[MO833] Paramount Iteration,15,66,0.046512,6.145104
[MO833] Paramount Iteration,14,66,0.046462,6.145270
[MO833] Paramount Iteration,0,66,0.046482,6.145769
[MO833] Paramount Iteration,5,67,0.209601,6.354319
[MO833] Paramount Iteration,13,67,0.209713,6.354326
[MO833] Paramount Iteration,2,67,0.209689,6.354818
[MO833] Paramount Iteration,10,67,0.209465,6.354412
[MO833] Paramount Iteration,6,67,0.209570,6.354573
[MO833] Paramount Iteration,9,67,0.209689,6.354246
[MO833] Paramount Iteration,14,67,0.209111,6.354403
[MO833] Paramount Iteration,3,67,0.210097,6.355100
[MO833] Paramount Iteration,4,67,0.209933,6.354837
[MO833] Paramount Iteration,12,67,0.210069,6.354880
[MO833] Paramount Iteration,7,67,0.210035,6.354980
[MO833] Paramount Iteration,11,67,0.209880,6.354910
[MO833] Paramount Iteration,8,67,0.209926,6.354739
[MO833] Paramount Iteration,15,67,0.209702,6.354917
[MO833] Paramount Iteration,1,67,0.210301,6.355082
[MO833] Paramount Iteration,0,67,0.210066,6.355909
[MO833] Paramount Iteration,2,68,0.047586,6.402482
[MO833] Paramount Iteration,5,68,0.047661,6.402040
[MO833] Paramount Iteration,13,68,0.047636,6.402048
[MO833] Paramount Iteration,3,68,0.047391,6.402512
[MO833] Paramount Iteration,6,68,0.047573,6.402176
[MO833] Paramount Iteration,10,68,0.047569,6.402051
[MO833] Paramount Iteration,7,68,0.047176,6.402196
[MO833] Paramount Iteration,11,68,0.047257,6.402215
[MO833] Paramount Iteration,12,68,0.047395,6.402295
[MO833] Paramount Iteration,9,68,0.047703,6.402016
[MO833] Paramount Iteration,8,68,0.047354,6.402113
[MO833] Paramount Iteration,4,68,0.047570,6.402427
[MO833] Paramount Iteration,14,68,0.047807,6.402240
[MO833] Paramount Iteration,1,68,0.047248,6.402389
[MO833] Paramount Iteration,15,68,0.047475,6.402434
[MO833] Paramount Iteration,0,68,0.047143,6.403127
[MO833] Paramount Iteration,5,69,0.046178,6.448282
[MO833] Paramount Iteration,13,69,0.046223,6.448337
[MO833] Paramount Iteration,2,69,0.046282,6.448846
[MO833] Paramount Iteration,6,69,0.046411,6.448615
[MO833] Paramount Iteration,14,69,0.046094,6.448363
[MO833] Paramount Iteration,9,69,0.046236,6.448315
[MO833] Paramount Iteration,10,69,0.046563,6.448682
[MO833] Paramount Iteration,3,69,0.046716,6.449235
[MO833] Paramount Iteration,7,69,0.046704,6.448993
[MO833] Paramount Iteration,15,69,0.046328,6.448798
[MO833] Paramount Iteration,4,69,0.046502,6.448949
[MO833] Paramount Iteration,12,69,0.046701,6.449037
[MO833] Paramount Iteration,1,69,0.046622,6.449106
[MO833] Paramount Iteration,8,69,0.046693,6.448865
[MO833] Paramount Iteration,11,69,0.046867,6.449136
[MO833] Paramount Iteration,0,69,0.046779,6.449983
[MO833] Paramount Iteration,2,70,0.045352,6.494270
[MO833] Paramount Iteration,13,70,0.045480,6.493896
[MO833] Paramount Iteration,5,70,0.045592,6.493938
[MO833] Paramount Iteration,6,70,0.045598,6.494241
[MO833] Paramount Iteration,10,70,0.045360,6.494113
[MO833] Paramount Iteration,3,70,0.045430,6.494684
[MO833] Paramount Iteration,9,70,0.045520,6.493910
[MO833] Paramount Iteration,14,70,0.045648,6.494093
[MO833] Paramount Iteration,12,70,0.045529,6.494586
[MO833] Paramount Iteration,7,70,0.045641,6.494672
[MO833] Paramount Iteration,4,70,0.045600,6.494569
[MO833] Paramount Iteration,1,70,0.045472,6.494656
[MO833] Paramount Iteration,11,70,0.045512,6.494705
[MO833] Paramount Iteration,15,70,0.045756,6.494600
[MO833] Paramount Iteration,8,70,0.045627,6.494537
[MO833] Paramount Iteration,0,70,0.045553,6.495613
[MO833] Paramount Iteration,7,71,0.212482,6.707193
[MO833] Paramount Iteration,13,71,0.213251,6.707228
[MO833] Paramount Iteration,15,71,0.212346,6.706995
[MO833] Paramount Iteration,3,71,0.212949,6.707652
[MO833] Paramount Iteration,5,71,0.213259,6.707254
[MO833] Paramount Iteration,11,71,0.212463,6.707229
[MO833] Paramount Iteration,10,71,0.213115,6.707300
[MO833] Paramount Iteration,12,71,0.212797,6.707404
[MO833] Paramount Iteration,9,71,0.213115,6.707105
[MO833] Paramount Iteration,6,71,0.213242,6.707512
[MO833] Paramount Iteration,2,71,0.213585,6.707924
[MO833] Paramount Iteration,14,71,0.213157,6.707322
[MO833] Paramount Iteration,4,71,0.212928,6.707517
[MO833] Paramount Iteration,8,71,0.212677,6.707260
[MO833] Paramount Iteration,1,71,0.212785,6.707529
[MO833] Paramount Iteration,0,71,0.212510,6.708201
[MO833] Paramount Iteration,3,72,0.045743,6.753423
[MO833] Paramount Iteration,7,72,0.045989,6.753269
[MO833] Paramount Iteration,13,72,0.045956,6.753263
[MO833] Paramount Iteration,2,72,0.045752,6.753724
[MO833] Paramount Iteration,15,72,0.046043,6.753129
[MO833] Paramount Iteration,5,72,0.045972,6.753292
[MO833] Paramount Iteration,12,72,0.045944,6.753366
[MO833] Paramount Iteration,11,72,0.045934,6.753250
[MO833] Paramount Iteration,10,72,0.046045,6.753385
[MO833] Paramount Iteration,4,72,0.045945,6.753480
[MO833] Paramount Iteration,6,72,0.046120,6.753653
[MO833] Paramount Iteration,8,72,0.046038,6.753339
[MO833] Paramount Iteration,9,72,0.046142,6.753314
[MO833] Paramount Iteration,1,72,0.046054,6.753645
[MO833] Paramount Iteration,14,72,0.046226,6.753570
[MO833] Paramount Iteration,0,72,0.045955,6.754233
[MO833] Paramount Iteration,3,73,0.047006,6.800456
[MO833] Paramount Iteration,2,73,0.046958,6.800716
[MO833] Paramount Iteration,7,73,0.046988,6.800339
[MO833] Paramount Iteration,15,73,0.046941,6.800166
[MO833] Paramount Iteration,11,73,0.046972,6.800308
[MO833] Paramount Iteration,5,73,0.047054,6.800407
[MO833] Paramount Iteration,4,73,0.046948,6.800446
[MO833] Paramount Iteration,10,73,0.046988,6.800419
[MO833] Paramount Iteration,6,73,0.046987,6.800662
[MO833] Paramount Iteration,13,73,0.047257,6.800593
[MO833] Paramount Iteration,12,73,0.047295,6.800678
[MO833] Paramount Iteration,9,73,0.046990,6.800375
[MO833] Paramount Iteration,14,73,0.046939,6.800531
[MO833] Paramount Iteration,8,73,0.047148,6.800494
[MO833] Paramount Iteration,1,73,0.047069,6.800773
[MO833] Paramount Iteration,0,73,0.047061,6.801368
[MO833] Paramount Iteration,5,74,0.208372,7.008845
[MO833] Paramount Iteration,13,74,0.208209,7.008897
[MO833] Paramount Iteration,2,74,0.208707,7.009453
[MO833] Paramount Iteration,10,74,0.208708,7.009170
[MO833] Paramount Iteration,3,74,0.209269,7.009752
[MO833] Paramount Iteration,6,74,0.208655,7.009337
[MO833] Paramount Iteration,1,74,0.208475,7.009312
[MO833] Paramount Iteration,4,74,0.208949,7.009402
[MO833] Paramount Iteration,12,74,0.208758,7.009454
[MO833] Paramount Iteration,9,74,0.208614,7.009079
[MO833] Paramount Iteration,11,74,0.209125,7.009522
[MO833] Paramount Iteration,14,74,0.208788,7.009342
[MO833] Paramount Iteration,7,74,0.209234,7.009659
[MO833] Paramount Iteration,15,74,0.209324,7.009605
[MO833] Paramount Iteration,8,74,0.209026,7.009574
[MO833] Paramount Iteration,0,74,0.208874,7.010321
[MO833] Paramount Iteration,5,75,0.045769,7.054682
[MO833] Paramount Iteration,13,75,0.045746,7.054726
[MO833] Paramount Iteration,2,75,0.045730,7.055259
[MO833] Paramount Iteration,3,75,0.045750,7.055522
[MO833] Paramount Iteration,6,75,0.045735,7.055100
[MO833] Paramount Iteration,10,75,0.045798,7.055041
[MO833] Paramount Iteration,14,75,0.045594,7.054968
[MO833] Paramount Iteration,4,75,0.045755,7.055176
[MO833] Paramount Iteration,12,75,0.045766,7.055239
[MO833] Paramount Iteration,9,75,0.045756,7.054916
[MO833] Paramount Iteration,1,75,0.045797,7.055172
[MO833] Paramount Iteration,7,75,0.045803,7.055504
[MO833] Paramount Iteration,11,75,0.045896,7.055465
[MO833] Paramount Iteration,8,75,0.045630,7.055252
[MO833] Paramount Iteration,15,75,0.045822,7.055468
[MO833] Paramount Iteration,0,75,0.045750,7.056142
[MO833] Paramount Iteration,2,76,0.045261,7.100589
[MO833] Paramount Iteration,13,76,0.045408,7.100210
[MO833] Paramount Iteration,10,76,0.045118,7.100233
[MO833] Paramount Iteration,5,76,0.045585,7.100331
[MO833] Paramount Iteration,3,76,0.045401,7.100943
[MO833] Paramount Iteration,14,76,0.045282,7.100285
[MO833] Paramount Iteration,6,76,0.045431,7.100561
[MO833] Paramount Iteration,12,76,0.045291,7.100549
[MO833] Paramount Iteration,9,76,0.045305,7.100299
[MO833] Paramount Iteration,4,76,0.045445,7.100640
[MO833] Paramount Iteration,11,76,0.045133,7.100645
[MO833] Paramount Iteration,1,76,0.045443,7.100694
[MO833] Paramount Iteration,7,76,0.045351,7.100895
[MO833] Paramount Iteration,15,76,0.045217,7.100726
[MO833] Paramount Iteration,8,76,0.045326,7.100634
[MO833] Paramount Iteration,0,76,0.045390,7.101607
[MO833] Paramount Iteration,2,77,0.045810,7.146468
[MO833] Paramount Iteration,5,77,0.045648,7.146043
[MO833] Paramount Iteration,13,77,0.045786,7.146077
[MO833] Paramount Iteration,14,77,0.045781,7.146098
[MO833] Paramount Iteration,3,77,0.045847,7.146810
[MO833] Paramount Iteration,6,77,0.045808,7.146399
[MO833] Paramount Iteration,10,77,0.045980,7.146280
[MO833] Paramount Iteration,4,77,0.045819,7.146478
[MO833] Paramount Iteration,9,77,0.045825,7.146201
[MO833] Paramount Iteration,12,77,0.046043,7.146611
[MO833] Paramount Iteration,1,77,0.045985,7.146735
[MO833] Paramount Iteration,7,77,0.045936,7.146870
[MO833] Paramount Iteration,11,77,0.046107,7.146792
[MO833] Paramount Iteration,15,77,0.045928,7.146692
[MO833] Paramount Iteration,8,77,0.046037,7.146726
[MO833] Paramount Iteration,0,77,0.046062,7.147740
[MO833] Paramount Iteration,5,78,0.212549,7.358654
[MO833] Paramount Iteration,13,78,0.212600,7.358758
[MO833] Paramount Iteration,2,78,0.212752,7.359290
[MO833] Paramount Iteration,14,78,0.212551,7.358680
[MO833] Paramount Iteration,6,78,0.212562,7.358990
[MO833] Paramount Iteration,10,78,0.212529,7.358879
[MO833] Paramount Iteration,9,78,0.212558,7.358835
[MO833] Paramount Iteration,3,78,0.212908,7.359752
[MO833] Paramount Iteration,4,78,0.212791,7.359288
[MO833] Paramount Iteration,12,78,0.212736,7.359367
[MO833] Paramount Iteration,1,78,0.212441,7.359252
[MO833] Paramount Iteration,7,78,0.212617,7.359542
[MO833] Paramount Iteration,11,78,0.212708,7.359557
[MO833] Paramount Iteration,15,78,0.212713,7.359444
[MO833] Paramount Iteration,8,78,0.212600,7.359369
[MO833] Paramount Iteration,0,78,0.212516,7.360332
[MO833] Paramount Iteration,2,79,0.047080,7.406443
[MO833] Paramount Iteration,13,79,0.047290,7.406127
[MO833] Paramount Iteration,14,79,0.047196,7.405907
[MO833] Paramount Iteration,5,79,0.047425,7.406142
[MO833] Paramount Iteration,3,79,0.046982,7.406755
[MO833] Paramount Iteration,6,79,0.047318,7.406335
[MO833] Paramount Iteration,10,79,0.047329,7.406239
[MO833] Paramount Iteration,12,79,0.047109,7.406496
[MO833] Paramount Iteration,4,79,0.047209,7.406516
[MO833] Paramount Iteration,15,79,0.046906,7.406396
[MO833] Paramount Iteration,7,79,0.047089,7.406672
[MO833] Paramount Iteration,9,79,0.047365,7.406275
[MO833] Paramount Iteration,11,79,0.047063,7.406660
[MO833] Paramount Iteration,1,79,0.047339,7.406700
[MO833] Paramount Iteration,8,79,0.047130,7.406557
[MO833] Paramount Iteration,0,79,0.047099,7.407512
[MO833] Paramount Iteration,5,80,0.047073,7.453278
[MO833] Paramount Iteration,2,80,0.047343,7.453844
[MO833] Paramount Iteration,13,80,0.047269,7.453476
[MO833] Paramount Iteration,14,80,0.047444,7.453381
[MO833] Paramount Iteration,3,80,0.047316,7.454091
[MO833] Paramount Iteration,10,80,0.047283,7.453552
[MO833] Paramount Iteration,6,80,0.047356,7.453722
[MO833] Paramount Iteration,4,80,0.047147,7.453707
[MO833] Paramount Iteration,12,80,0.047257,7.453773
[MO833] Paramount Iteration,9,80,0.047187,7.453537
[MO833] Paramount Iteration,15,80,0.047377,7.453815
[MO833] Paramount Iteration,7,80,0.047322,7.454056
[MO833] Paramount Iteration,11,80,0.047251,7.453951
[MO833] Paramount Iteration,1,80,0.047210,7.453970
[MO833] Paramount Iteration,8,80,0.047260,7.453860
[MO833] Paramount Iteration,0,80,0.047163,7.454754
[MO833] Paramount Iteration,13,81,0.208733,7.662290
[MO833] Paramount Iteration,5,81,0.208986,7.662291
[MO833] Paramount Iteration,2,81,0.208998,7.662909
[MO833] Paramount Iteration,9,81,0.208573,7.662186
[MO833] Paramount Iteration,14,81,0.208917,7.662328
[MO833] Paramount Iteration,6,81,0.208872,7.662624
[MO833] Paramount Iteration,10,81,0.208845,7.662470
[MO833] Paramount Iteration,12,81,0.209048,7.662840
[MO833] Paramount Iteration,3,81,0.209187,7.663298
[MO833] Paramount Iteration,4,81,0.209134,7.662878
[MO833] Paramount Iteration,1,81,0.208900,7.662930
[MO833] Paramount Iteration,7,81,0.208998,7.663090
[MO833] Paramount Iteration,8,81,0.208851,7.662769
[MO833] Paramount Iteration,15,81,0.209053,7.662907
[MO833] Paramount Iteration,11,81,0.209118,7.663127
[MO833] Paramount Iteration,0,81,0.209089,7.663914
[MO833] Paramount Iteration,5,82,0.047128,7.709446
[MO833] Paramount Iteration,13,82,0.047115,7.709487
[MO833] Paramount Iteration,2,82,0.047133,7.710102
[MO833] Paramount Iteration,6,82,0.047221,7.709874
[MO833] Paramount Iteration,9,82,0.047335,7.709586
[MO833] Paramount Iteration,10,82,0.047291,7.709793
[MO833] Paramount Iteration,14,82,0.047322,7.709681
[MO833] Paramount Iteration,3,82,0.047246,7.710563
[MO833] Paramount Iteration,4,82,0.047210,7.710141
[MO833] Paramount Iteration,12,82,0.047306,7.710166
[MO833] Paramount Iteration,1,82,0.047202,7.710190
[MO833] Paramount Iteration,7,82,0.047183,7.710328
[MO833] Paramount Iteration,8,82,0.047268,7.710083
[MO833] Paramount Iteration,15,82,0.047312,7.710264
[MO833] Paramount Iteration,11,82,0.047223,7.710394
[MO833] Paramount Iteration,0,82,0.047162,7.711149
[MO833] Paramount Iteration,2,83,0.047180,7.757354
[MO833] Paramount Iteration,5,83,0.047325,7.756797
[MO833] Paramount Iteration,13,83,0.047415,7.756980
[MO833] Paramount Iteration,6,83,0.047228,7.757130
[MO833] Paramount Iteration,3,83,0.047015,7.757598
[MO833] Paramount Iteration,14,83,0.047237,7.756949
[MO833] Paramount Iteration,4,83,0.046964,7.757146
[MO833] Paramount Iteration,12,83,0.047042,7.757229
[MO833] Paramount Iteration,10,83,0.047355,7.757180
[MO833] Paramount Iteration,7,83,0.047035,7.757401
[MO833] Paramount Iteration,9,83,0.047512,7.757170
[MO833] Paramount Iteration,1,83,0.047201,7.757450
[MO833] Paramount Iteration,15,83,0.047084,7.757392
[MO833] Paramount Iteration,8,83,0.047220,7.757361
[MO833] Paramount Iteration,11,83,0.047227,7.757666
[MO833] Paramount Iteration,0,83,0.047173,7.758407
[MO833] Paramount Iteration,3,84,0.047906,7.805524
[MO833] Paramount Iteration,2,84,0.048398,7.805820
[MO833] Paramount Iteration,7,84,0.048078,7.805516
[MO833] Paramount Iteration,5,84,0.048601,7.805425
[MO833] Paramount Iteration,13,84,0.048439,7.805503
[MO833] Paramount Iteration,6,84,0.048581,7.805740
[MO833] Paramount Iteration,4,84,0.048531,7.805713
[MO833] Paramount Iteration,12,84,0.048580,7.805827
[MO833] Paramount Iteration,1,84,0.048297,7.805799
[MO833] Paramount Iteration,9,84,0.048389,7.805634
[MO833] Paramount Iteration,15,84,0.048334,7.805769
[MO833] Paramount Iteration,11,84,0.048219,7.805927
[MO833] Paramount Iteration,10,84,0.048827,7.806040
[MO833] Paramount Iteration,8,84,0.048666,7.806082
[MO833] Paramount Iteration,14,84,0.049157,7.806136
[MO833] Paramount Iteration,0,84,0.048260,7.806739
[MO833] Paramount Iteration,5,85,0.214915,8.020368
[MO833] Paramount Iteration,13,85,0.214832,8.020427
[MO833] Paramount Iteration,12,85,0.214872,8.020718
[MO833] Paramount Iteration,2,85,0.215304,8.021159
[MO833] Paramount Iteration,3,85,0.215655,8.021205
[MO833] Paramount Iteration,4,85,0.215006,8.020757
[MO833] Paramount Iteration,6,85,0.215154,8.020916
[MO833] Paramount Iteration,1,85,0.214947,8.020810
[MO833] Paramount Iteration,7,85,0.215297,8.020896
[MO833] Paramount Iteration,10,85,0.214830,8.020894
[MO833] Paramount Iteration,15,85,0.214986,8.020848
[MO833] Paramount Iteration,9,85,0.214971,8.020688
[MO833] Paramount Iteration,14,85,0.214811,8.020976
[MO833] Paramount Iteration,11,85,0.215132,8.021167
[MO833] Paramount Iteration,8,85,0.214985,8.021117
[MO833] Paramount Iteration,0,85,0.214850,8.021664
[MO833] Paramount Iteration,2,86,0.045797,8.067038
[MO833] Paramount Iteration,5,86,0.046245,8.066642
[MO833] Paramount Iteration,13,86,0.046261,8.066774
[MO833] Paramount Iteration,6,86,0.045916,8.066840
[MO833] Paramount Iteration,3,86,0.046314,8.067529
[MO833] Paramount Iteration,14,86,0.045853,8.066847
[MO833] Paramount Iteration,10,86,0.046053,8.066980
[MO833] Paramount Iteration,7,86,0.046265,8.067247
[MO833] Paramount Iteration,9,86,0.046166,8.066903
[MO833] Paramount Iteration,1,86,0.046378,8.067239
[MO833] Paramount Iteration,4,86,0.046544,8.067339
[MO833] Paramount Iteration,12,86,0.046638,8.067375
[MO833] Paramount Iteration,11,86,0.046392,8.067598
[MO833] Paramount Iteration,15,86,0.046554,8.067492
[MO833] Paramount Iteration,8,86,0.046325,8.067481
[MO833] Paramount Iteration,0,86,0.046615,8.068348
[MO833] Paramount Iteration,3,87,0.046385,8.113934
[MO833] Paramount Iteration,7,87,0.046230,8.113515
[MO833] Paramount Iteration,15,87,0.045959,8.113500
[MO833] Paramount Iteration,2,87,0.047091,8.114201
[MO833] Paramount Iteration,6,87,0.046975,8.113842
[MO833] Paramount Iteration,4,87,0.046410,8.113790
[MO833] Paramount Iteration,13,87,0.047016,8.113854
[MO833] Paramount Iteration,5,87,0.047155,8.113826
[MO833] Paramount Iteration,12,87,0.046478,8.113874
[MO833] Paramount Iteration,11,87,0.046133,8.113794
[MO833] Paramount Iteration,14,87,0.046958,8.113836
[MO833] Paramount Iteration,10,87,0.046986,8.114001
[MO833] Paramount Iteration,8,87,0.046412,8.113938
[MO833] Paramount Iteration,9,87,0.046996,8.113930
[MO833] Paramount Iteration,1,87,0.046931,8.114231
[MO833] Paramount Iteration,0,87,0.046285,8.114708
[MO833] Paramount Iteration,5,88,0.045417,8.159252
[MO833] Paramount Iteration,2,88,0.045608,8.159843
[MO833] Paramount Iteration,3,88,0.045930,8.159891
[MO833] Paramount Iteration,4,88,0.045532,8.159416
[MO833] Paramount Iteration,6,88,0.045683,8.159546
[MO833] Paramount Iteration,12,88,0.045628,8.159510
[MO833] Paramount Iteration,13,88,0.045660,8.159601
[MO833] Paramount Iteration,7,88,0.046088,8.159681
[MO833] Paramount Iteration,15,88,0.045945,8.159511
[MO833] Paramount Iteration,10,88,0.045628,8.159652
[MO833] Paramount Iteration,14,88,0.045652,8.159510
[MO833] Paramount Iteration,11,88,0.045760,8.159648
[MO833] Paramount Iteration,8,88,0.045595,8.159622
[MO833] Paramount Iteration,1,88,0.045588,8.159883
[MO833] Paramount Iteration,9,88,0.045809,8.159763
[MO833] Paramount Iteration,0,88,0.045694,8.160477
[MO833] Paramount Iteration,13,89,0.211633,8.371268
[MO833] Paramount Iteration,2,89,0.211904,8.371803
[MO833] Paramount Iteration,5,89,0.212038,8.371318
[MO833] Paramount Iteration,10,89,0.211704,8.371365
[MO833] Paramount Iteration,14,89,0.211745,8.371263
[MO833] Paramount Iteration,9,89,0.211435,8.371218
[MO833] Paramount Iteration,6,89,0.212024,8.371600
[MO833] Paramount Iteration,3,89,0.212357,8.372265
[MO833] Paramount Iteration,15,89,0.212076,8.371677
[MO833] Paramount Iteration,7,89,0.212189,8.371925
[MO833] Paramount Iteration,12,89,0.212368,8.371906
[MO833] Paramount Iteration,4,89,0.212516,8.371963
[MO833] Paramount Iteration,11,89,0.212254,8.372001
[MO833] Paramount Iteration,8,89,0.212096,8.371819
[MO833] Paramount Iteration,1,89,0.212101,8.372039
[MO833] Paramount Iteration,0,89,0.212340,8.372887
[MO833] Paramount Iteration,3,90,0.045901,8.418187
[MO833] Paramount Iteration,7,90,0.045860,8.417822
[MO833] Paramount Iteration,15,90,0.045900,8.417613
[MO833] Paramount Iteration,6,90,0.046368,8.417998
[MO833] Paramount Iteration,2,90,0.046597,8.418477
[MO833] Paramount Iteration,14,90,0.046533,8.417825
[MO833] Paramount Iteration,4,90,0.046042,8.418047
[MO833] Paramount Iteration,12,90,0.046245,8.418171
[MO833] Paramount Iteration,5,90,0.046810,8.418159
[MO833] Paramount Iteration,11,90,0.046090,8.418134
[MO833] Paramount Iteration,13,90,0.046961,8.418312
[MO833] Paramount Iteration,10,90,0.046892,8.418290
[MO833] Paramount Iteration,1,90,0.046335,8.418422
[MO833] Paramount Iteration,8,90,0.046380,8.418245
[MO833] Paramount Iteration,9,90,0.047026,8.418272
[MO833] Paramount Iteration,0,90,0.045916,8.418891
[MO833] Paramount Iteration,2,91,0.045762,8.464274
[MO833] Paramount Iteration,5,91,0.045728,8.463904
[MO833] Paramount Iteration,6,91,0.046062,8.464077
[MO833] Paramount Iteration,13,91,0.045696,8.464025
[MO833] Paramount Iteration,14,91,0.046030,8.463876
[MO833] Paramount Iteration,3,91,0.046392,8.464606
[MO833] Paramount Iteration,10,91,0.045732,8.464045
[MO833] Paramount Iteration,7,91,0.046535,8.464435
[MO833] Paramount Iteration,9,91,0.045784,8.464064
[MO833] Paramount Iteration,1,91,0.045841,8.464323
[MO833] Paramount Iteration,12,91,0.046205,8.464443
[MO833] Paramount Iteration,15,91,0.046569,8.464247
[MO833] Paramount Iteration,4,91,0.046278,8.464403
[MO833] Paramount Iteration,8,91,0.045974,8.464324
[MO833] Paramount Iteration,11,91,0.046345,8.464572
[MO833] Paramount Iteration,0,91,0.046088,8.465062
[MO833] Paramount Iteration,5,92,0.046085,8.510017
[MO833] Paramount Iteration,2,92,0.046285,8.510627
[MO833] Paramount Iteration,13,92,0.046197,8.510267
[MO833] Paramount Iteration,6,92,0.046274,8.510381
[MO833] Paramount Iteration,14,92,0.046277,8.510222
[MO833] Paramount Iteration,9,92,0.046075,8.510168
[MO833] Paramount Iteration,3,92,0.046361,8.511007
[MO833] Paramount Iteration,10,92,0.046456,8.510531
[MO833] Paramount Iteration,1,92,0.046223,8.510625
[MO833] Paramount Iteration,7,92,0.046326,8.510799
[MO833] Paramount Iteration,4,92,0.046291,8.510731
[MO833] Paramount Iteration,15,92,0.046375,8.510669
[MO833] Paramount Iteration,12,92,0.046596,8.511075
[MO833] Paramount Iteration,8,92,0.046480,8.510840
[MO833] Paramount Iteration,11,92,0.046485,8.511102
[MO833] Paramount Iteration,0,92,0.046720,8.511850
[MO833] Paramount Iteration,5,93,0.212356,8.722399
[MO833] Paramount Iteration,13,93,0.212100,8.722398
[MO833] Paramount Iteration,2,93,0.212259,8.722956
[MO833] Paramount Iteration,14,93,0.212073,8.722365
[MO833] Paramount Iteration,9,93,0.212118,8.722318
[MO833] Paramount Iteration,6,93,0.212267,8.722677
[MO833] Paramount Iteration,10,93,0.212122,8.722687
[MO833] Paramount Iteration,3,93,0.212257,8.723305
[MO833] Paramount Iteration,12,93,0.211729,8.722852
[MO833] Paramount Iteration,4,93,0.212118,8.722887
[MO833] Paramount Iteration,15,93,0.212075,8.722790
[MO833] Paramount Iteration,7,93,0.212223,8.723076
[MO833] Paramount Iteration,1,93,0.212298,8.722979
[MO833] Paramount Iteration,8,93,0.211962,8.722846
[MO833] Paramount Iteration,11,93,0.212084,8.723235
[MO833] Paramount Iteration,0,93,0.212018,8.723944
[MO833] Paramount Iteration,5,94,0.047881,8.770308
[MO833] Paramount Iteration,13,94,0.048064,8.770548
[MO833] Paramount Iteration,2,94,0.048009,8.771043
[MO833] Paramount Iteration,3,94,0.047770,8.771119
[MO833] Paramount Iteration,6,94,0.048060,8.770768
[MO833] Paramount Iteration,4,94,0.047769,8.770694
[MO833] Paramount Iteration,12,94,0.047884,8.770779
[MO833] Paramount Iteration,14,94,0.048123,8.770561
[MO833] Paramount Iteration,7,94,0.047872,8.770987
[MO833] Paramount Iteration,15,94,0.047919,8.770753
[MO833] Paramount Iteration,9,94,0.048362,8.770711
[MO833] Paramount Iteration,10,94,0.048196,8.770917
[MO833] Paramount Iteration,11,94,0.047849,8.771131
[MO833] Paramount Iteration,1,94,0.048089,8.771133
[MO833] Paramount Iteration,8,94,0.048102,8.770990
[MO833] Paramount Iteration,0,94,0.047871,8.771893
[MO833] Paramount Iteration,2,95,0.048361,8.819477
[MO833] Paramount Iteration,5,95,0.048667,8.819001
[MO833] Paramount Iteration,13,95,0.048387,8.819016
[MO833] Paramount Iteration,6,95,0.048550,8.819346
[MO833] Paramount Iteration,9,95,0.048261,8.819003
[MO833] Paramount Iteration,10,95,0.048300,8.819252
[MO833] Paramount Iteration,3,95,0.048738,8.819893
[MO833] Paramount Iteration,14,95,0.048757,8.819392
[MO833] Paramount Iteration,7,95,0.048790,8.819817
[MO833] Paramount Iteration,4,95,0.048978,8.819705
[MO833] Paramount Iteration,12,95,0.048988,8.819812
[MO833] Paramount Iteration,1,95,0.048545,8.819731
[MO833] Paramount Iteration,11,95,0.048706,8.819875
[MO833] Paramount Iteration,8,95,0.048646,8.819675
[MO833] Paramount Iteration,15,95,0.049192,8.819987
[MO833] Paramount Iteration,0,95,0.048689,8.820670
[MO833] Paramount Iteration,2,96,0.048060,8.867605
[MO833] Paramount Iteration,5,96,0.048052,8.867080
[MO833] Paramount Iteration,13,96,0.048190,8.867293
[MO833] Paramount Iteration,6,96,0.048065,8.867441
[MO833] Paramount Iteration,10,96,0.047997,8.867283
[MO833] Paramount Iteration,3,96,0.048038,8.867972
[MO833] Paramount Iteration,9,96,0.048230,8.867263
[MO833] Paramount Iteration,4,96,0.047836,8.867583
[MO833] Paramount Iteration,14,96,0.047957,8.867426
[MO833] Paramount Iteration,12,96,0.047876,8.867736
[MO833] Paramount Iteration,7,96,0.047986,8.867856
[MO833] Paramount Iteration,1,96,0.047904,8.867717
[MO833] Paramount Iteration,8,96,0.047851,8.867570
[MO833] Paramount Iteration,11,96,0.047965,8.867886
[MO833] Paramount Iteration,15,96,0.047910,8.867945
[MO833] Paramount Iteration,0,96,0.047848,8.868599
[MO833] Paramount Iteration,2,97,0.217797,9.085472
[MO833] Paramount Iteration,5,97,0.217827,9.084935
[MO833] Paramount Iteration,13,97,0.217677,9.085063
[MO833] Paramount Iteration,10,97,0.217701,9.085014
[MO833] Paramount Iteration,6,97,0.217820,9.085290
[MO833] Paramount Iteration,9,97,0.217644,9.084938
[MO833] Paramount Iteration,3,97,0.217795,9.085809
[MO833] Paramount Iteration,14,97,0.217620,9.085124
[MO833] Paramount Iteration,7,97,0.217721,9.085614
[MO833] Paramount Iteration,1,97,0.217742,9.085513
[MO833] Paramount Iteration,12,97,0.217848,9.085629
[MO833] Paramount Iteration,11,97,0.217619,9.085550
[MO833] Paramount Iteration,4,97,0.217970,9.085591
[MO833] Paramount Iteration,15,97,0.217535,9.085528
[MO833] Paramount Iteration,8,97,0.217918,9.085526
[MO833] Paramount Iteration,0,97,0.217765,9.086436
[MO833] Paramount Iteration,2,98,0.047017,9.132565
[MO833] Paramount Iteration,5,98,0.047120,9.132083
[MO833] Paramount Iteration,14,98,0.046692,9.131891
[MO833] Paramount Iteration,6,98,0.046962,9.132280
[MO833] Paramount Iteration,13,98,0.047023,9.132205
[MO833] Paramount Iteration,10,98,0.047176,9.132220
[MO833] Paramount Iteration,3,98,0.046982,9.132812
[MO833] Paramount Iteration,9,98,0.047108,9.132075
[MO833] Paramount Iteration,7,98,0.046915,9.132565
[MO833] Paramount Iteration,4,98,0.046889,9.132522
[MO833] Paramount Iteration,12,98,0.046899,9.132576
[MO833] Paramount Iteration,1,98,0.047043,9.132620
[MO833] Paramount Iteration,11,98,0.047042,9.132633
[MO833] Paramount Iteration,8,98,0.046934,9.132501
[MO833] Paramount Iteration,15,98,0.047058,9.132632
[MO833] Paramount Iteration,0,98,0.046986,9.133501
[MO833] Paramount Iteration,2,99,0.047207,9.179842
[MO833] Paramount Iteration,5,99,0.047321,9.179431
[MO833] Paramount Iteration,13,99,0.047195,9.179492
[MO833] Paramount Iteration,10,99,0.047152,9.179400
[MO833] Paramount Iteration,6,99,0.047277,9.179585
[MO833] Paramount Iteration,14,99,0.047394,9.179346
[MO833] Paramount Iteration,3,99,0.047325,9.180158
[MO833] Paramount Iteration,9,99,0.047277,9.179382
[MO833] Paramount Iteration,7,99,0.047365,9.179966
[MO833] Paramount Iteration,1,99,0.047172,9.179847
[MO833] Paramount Iteration,4,99,0.047448,9.180006
[MO833] Paramount Iteration,12,99,0.047451,9.180073
[MO833] Paramount Iteration,15,99,0.047237,9.179890
[MO833] Paramount Iteration,11,99,0.047344,9.180015
[MO833] Paramount Iteration,8,99,0.047303,9.179855
[MO833] Paramount Iteration,0,99,0.047091,9.180669
     100   0.97370899   0.44244116    20.501568    22.404572    4.6905307 
[MO833] Paramount Iteration,2,100,0.234218,9.414113
[MO833] Paramount Iteration,4,100,0.233573,9.413618
[MO833] Paramount Iteration,12,100,0.233544,9.413664
[MO833] Paramount Iteration,8,100,0.233447,9.413344
[MO833] Paramount Iteration,10,100,0.234111,9.413543
[MO833] Paramount Iteration,14,100,0.234040,9.413467
[MO833] Paramount Iteration,1,100,0.233644,9.413545
[MO833] Paramount Iteration,3,100,0.233937,9.414114
[MO833] Paramount Iteration,6,100,0.234122,9.413735
[MO833] Paramount Iteration,5,100,0.234159,9.413618
[MO833] Paramount Iteration,13,100,0.234090,9.413669
[MO833] Paramount Iteration,9,100,0.233932,9.413344
[MO833] Paramount Iteration,11,100,0.233510,9.413570
[MO833] Paramount Iteration,15,100,0.233583,9.413493
[MO833] Paramount Iteration,7,100,0.233730,9.413735
[MO833] Paramount Iteration,0,100,0.233034,9.413777
Loop time of 8.78017 on 16 procs for 100 steps with 2048000 atoms

Performance: 11808.425 tau/day, 11.389 timesteps/s
93.7% CPU use with 16 MPI tasks x 1 OpenMP threads

MPI task timing breakdown:
Section |  min time  |  avg time  |  max time  |%varavg| %total
---------------------------------------------------------------
Pair    | 1.5699     | 1.7626     | 1.949      |   8.7 | 20.08
Bond    | 0.6441     | 0.8106     | 0.98369    |  12.1 |  9.23
Neigh   | 3.8138     | 3.8287     | 3.8439     |   0.4 | 43.61
Comm    | 0.68634    | 1.0603     | 1.4169     |  21.8 | 12.08
Output  | 0.0014875  | 0.0019315  | 0.0023415  |   0.5 |  0.02
Modify  | 0.93264    | 0.98231    | 1.0864     |   3.8 | 11.19
Other   |            | 0.3337     |            |       |  3.80

Nlocal:    128000 ave 128092 max 127945 min
Histogram: 1 4 3 0 3 3 1 0 0 1
Nghost:    24499.1 ave 24615 max 24407 min
Histogram: 3 0 1 1 6 1 1 1 1 1
Neighs:    623046 ave 623809 max 622608 min
Histogram: 3 3 2 0 3 3 0 1 0 1

Total # of neighbors = 9968733
Ave neighs/atom = 4.86755
Ave special neighs/atom = 1.98
Neighbor list builds = 26
Dangerous builds = 0
Total wall time: 0:00:09
[MO833] Beta,1,0.076364
[MO833] Beta,3,0.076424
[MO833] PI avg,3,0.087800,100
[MO833] Beta,6,0.076384
[MO833] PI avg,6,0.087799,100
[MO833] Beta,5,0.076396
[MO833] Beta,13,0.076406
[MO833] PI avg,13,0.087798,100
[MO833] Beta,9,0.076347
[MO833] PI avg,9,0.087799,100
[MO833] Beta,11,0.076401
[MO833] Beta,15,0.076381
[MO833] PI avg,15,0.087798,100
[MO833] PI avg,1,0.087798,100
[MO833] Beta,7,0.076395
[MO833] PI avg,5,0.087798,100
[MO833] PI avg,11,0.087798,100
[MO833] Beta,14,0.076390
[MO833] PI avg,7,0.087799,100
[MO833] PI avg,14,0.087798,100
[MO833] Beta,2,0.076512
[MO833] Beta,8,0.076428
[MO833] PI avg,8,0.087800,100
[MO833] PI avg,2,0.087800,100
[MO833] Beta,12,0.076487
[MO833] PI avg,12,0.087798,100
[MO833] Beta,0,0.076457
[MO833] PI avg,0,0.087801,100
[MO833] Total time,9.451371
[MO833] Beta,4,0.076482
[MO833] PI avg,4,0.087799,100
[MO833] Beta,10,0.076488
[MO833] PI avg,10,0.087798,100
