LAMMPS (3 Mar 2020)
OMP_NUM_THREADS environment is not set. Defaulting to 1 thread. (src/comm.cpp:94)
  using 1 OpenMP thread(s) per MPI task
Reading data file ...
  orthogonal box = (0 0 0) to (3.1 3.1 3.1)
  2 by 2 by 4 MPI processor grid
  reading atoms ...
  3 atoms
  scanning bonds ...
  2 = max bonds/atom
  scanning angles ...
  1 = max angles/atom
  reading bonds ...
  2 bonds
  reading angles ...
  1 angles
Finding 1-2 1-3 1-4 neighbors ...
  special bond factors lj:   0          0          0         
  special bond factors coul: 0          0          0         
  2 = max # of 1-2 neighbors
  1 = max # of 1-3 neighbors
  1 = max # of 1-4 neighbors
  2 = max # of special neighbors
  special bonds CPU = 0.00452304 secs
  read_data CPU = 0.0192857 secs
Replicating atoms ...
  orthogonal box = (0 0 0) to (62 62 62)
  2 by 2 by 4 MPI processor grid
  24000 atoms
  16000 bonds
  8000 angles
Finding 1-2 1-3 1-4 neighbors ...
  special bond factors lj:   0          0          0         
  special bond factors coul: 0          0          0         
  2 = max # of 1-2 neighbors
  1 = max # of 1-3 neighbors
  1 = max # of 1-4 neighbors
  2 = max # of special neighbors
  special bonds CPU = 0.00581789 secs
  replicate CPU = 0.0111899 secs
Displacing atoms ...
Changing box ...
  orthogonal box = (-31 0 0) to (31 62 62)
Changing box ...
  orthogonal box = (-31 -31 0) to (31 31 62)
Changing box ...
  orthogonal box = (-31 -31 -31) to (31 31 31)
Changing box ...
  orthogonal box = (-31 -31 -124) to (31 31 124)
16000 atoms in group hydrogen
8000 atoms in group oxygen
Finding SHAKE clusters ...
  0 = # of size 2 clusters
  0 = # of size 3 clusters
  0 = # of size 4 clusters
  8000 = # of frozen angles
  find clusters CPU = 0.00401425 secs
PPPM initialization ...
  extracting TIP4P info from pair style
  using 12-bit tables for long-range coulomb (src/kspace.cpp:332)
  G vector (1/distance) = 0.230756
  grid = 45 45 120
  stencil order = 5
  estimated absolute RMS force accuracy = 0.00315988
  estimated relative force accuracy = 9.51587e-06
  using double precision KISS FFT
  3d grid and FFT values/proc = 31117 16200
Neighbor list info ...
  update every 1 steps, delay 0 steps, check yes
  max neighbors/atom: 2000, page size: 100000
  master list distance cutoff = 15.3092
  ghost atom cutoff = 15.3092
  binsize = 7.6546, bins = 9 9 33
  1 neighbor lists, perpetual/occasional/extra = 1 0 0
  (1) pair lj/cut/tip4p/long, perpetual
      attributes: half, newton on
      pair build: half/bin/newton
      stencil: half/bin/3d/newton
      bin: standard
Setting up Verlet run ...
  Unit style    : real
  Current step  : 0
  Time step     : 2
Per MPI rank memory allocation (min/avg/max) = 12.52 | 21.19 | 30.55 Mbytes
Step Temp f_TAve Press f_PAve v_xyArea Lz f_st 
       0    450.00938            0    13733.809            0         3844          248            0 
[MO833] Paramount Iteration,0,1,0.093003,0.480121
[MO833] Paramount Iteration,3,1,0.093016,0.480535
[MO833] Paramount Iteration,12,1,0.092972,0.476313
[MO833] Paramount Iteration,4,1,0.092977,0.480093
[MO833] Paramount Iteration,10,1,0.093031,0.480136
[MO833] Paramount Iteration,6,1,0.093006,0.480078
[MO833] Paramount Iteration,14,1,0.093002,0.476349
[MO833] Paramount Iteration,1,1,0.093016,0.480134
[MO833] Paramount Iteration,2,1,0.093030,0.480549
[MO833] Paramount Iteration,13,1,0.092983,0.476323
[MO833] Paramount Iteration,5,1,0.092992,0.480105
[MO833] Paramount Iteration,11,1,0.093021,0.480126
[MO833] Paramount Iteration,8,1,0.093016,0.480147
[MO833] Paramount Iteration,7,1,0.092996,0.480071
[MO833] Paramount Iteration,15,1,0.092993,0.476340
[MO833] Paramount Iteration,9,1,0.093026,0.480161
[MO833] Paramount Iteration,0,2,0.092770,0.573145
[MO833] Paramount Iteration,2,2,0.092960,0.573565
[MO833] Paramount Iteration,4,2,0.093032,0.573151
[MO833] Paramount Iteration,10,2,0.093002,0.573155
[MO833] Paramount Iteration,8,2,0.092955,0.573164
[MO833] Paramount Iteration,6,2,0.093038,0.573132
[MO833] Paramount Iteration,1,2,0.093002,0.573153
[MO833] Paramount Iteration,3,2,0.092994,0.573554
[MO833] Paramount Iteration,12,2,0.093005,0.569382
[MO833] Paramount Iteration,5,2,0.093012,0.573163
[MO833] Paramount Iteration,11,2,0.092960,0.573146
[MO833] Paramount Iteration,9,2,0.093000,0.573178
[MO833] Paramount Iteration,7,2,0.092995,0.573123
[MO833] Paramount Iteration,14,2,0.093038,0.569408
[MO833] Paramount Iteration,13,2,0.093055,0.569392
[MO833] Paramount Iteration,15,2,0.092991,0.569395
[MO833] Paramount Iteration,0,3,0.092336,0.665746
[MO833] Paramount Iteration,3,3,0.092605,0.666179
[MO833] Paramount Iteration,12,3,0.092512,0.661955
[MO833] Paramount Iteration,4,3,0.092550,0.665726
[MO833] Paramount Iteration,8,3,0.092553,0.665772
[MO833] Paramount Iteration,6,3,0.092581,0.665732
[MO833] Paramount Iteration,1,3,0.092590,0.665758
[MO833] Paramount Iteration,2,3,0.092623,0.666224
[MO833] Paramount Iteration,13,3,0.092562,0.661964
[MO833] Paramount Iteration,5,3,0.092531,0.665738
[MO833] Paramount Iteration,10,3,0.092635,0.665802
[MO833] Paramount Iteration,9,3,0.092598,0.665786
[MO833] Paramount Iteration,7,3,0.092540,0.665727
[MO833] Paramount Iteration,14,3,0.092576,0.661992
[MO833] Paramount Iteration,11,3,0.092585,0.665793
[MO833] Paramount Iteration,15,3,0.092530,0.661983
[MO833] Paramount Iteration,0,4,0.093136,0.759130
[MO833] Paramount Iteration,1,4,0.093369,0.759142
[MO833] Paramount Iteration,3,4,0.093371,0.759570
[MO833] Paramount Iteration,12,4,0.093356,0.755369
[MO833] Paramount Iteration,4,4,0.093381,0.759134
[MO833] Paramount Iteration,10,4,0.093347,0.759158
[MO833] Paramount Iteration,8,4,0.093336,0.759158
[MO833] Paramount Iteration,6,4,0.093399,0.759144
[MO833] Paramount Iteration,2,4,0.093337,0.759581
[MO833] Paramount Iteration,13,4,0.093408,0.755381
[MO833] Paramount Iteration,5,4,0.093358,0.759146
[MO833] Paramount Iteration,11,4,0.093300,0.759149
[MO833] Paramount Iteration,9,4,0.093378,0.759172
[MO833] Paramount Iteration,7,4,0.093357,0.759138
[MO833] Paramount Iteration,14,4,0.093410,0.755414
[MO833] Paramount Iteration,15,4,0.093362,0.755404
[MO833] Paramount Iteration,0,5,0.092200,0.851585
[MO833] Paramount Iteration,3,5,0.092415,0.852003
[MO833] Paramount Iteration,12,5,0.092347,0.847777
[MO833] Paramount Iteration,4,5,0.092393,0.851556
[MO833] Paramount Iteration,6,5,0.092405,0.851560
[MO833] Paramount Iteration,14,5,0.092373,0.847808
[MO833] Paramount Iteration,1,5,0.092444,0.851599
[MO833] Paramount Iteration,2,5,0.092390,0.852015
[MO833] Paramount Iteration,13,5,0.092399,0.847787
[MO833] Paramount Iteration,5,5,0.092368,0.851566
[MO833] Paramount Iteration,10,5,0.092443,0.851612
[MO833] Paramount Iteration,8,5,0.092472,0.851680
[MO833] Paramount Iteration,7,5,0.092350,0.851540
[MO833] Paramount Iteration,15,5,0.092329,0.847800
[MO833] Paramount Iteration,11,5,0.092393,0.851603
[MO833] Paramount Iteration,9,5,0.092514,0.851694
[MO833] Paramount Iteration,0,6,0.091969,0.943793
[MO833] Paramount Iteration,12,6,0.092125,0.939963
[MO833] Paramount Iteration,4,6,0.092184,0.943762
[MO833] Paramount Iteration,8,6,0.092059,0.943792
[MO833] Paramount Iteration,6,6,0.092189,0.943757
[MO833] Paramount Iteration,14,6,0.092190,0.940010
[MO833] Paramount Iteration,1,6,0.092194,0.943804
[MO833] Paramount Iteration,2,6,0.092191,0.944249
[MO833] Paramount Iteration,13,6,0.092178,0.939974
[MO833] Paramount Iteration,5,6,0.092161,0.943773
[MO833] Paramount Iteration,10,6,0.092185,0.943808
[MO833] Paramount Iteration,9,6,0.092103,0.943806
[MO833] Paramount Iteration,7,6,0.092147,0.943749
[MO833] Paramount Iteration,15,6,0.092146,0.940001
[MO833] Paramount Iteration,3,6,0.092221,0.944242
[MO833] Paramount Iteration,11,6,0.092135,0.943798
[MO833] Paramount Iteration,2,7,0.173822,1.118108
[MO833] Paramount Iteration,4,7,0.173863,1.117646
[MO833] Paramount Iteration,10,7,0.173868,1.117702
[MO833] Paramount Iteration,8,7,0.173860,1.117704
[MO833] Paramount Iteration,0,7,0.173916,1.117780
[MO833] Paramount Iteration,3,7,0.173840,1.118099
[MO833] Paramount Iteration,12,7,0.173849,1.113873
[MO833] Paramount Iteration,5,7,0.173842,1.117658
[MO833] Paramount Iteration,11,7,0.173821,1.117694
[MO833] Paramount Iteration,9,7,0.173903,1.117718
[MO833] Paramount Iteration,6,7,0.173875,1.117640
[MO833] Paramount Iteration,14,7,0.173887,1.113908
[MO833] Paramount Iteration,13,7,0.173902,1.113885
[MO833] Paramount Iteration,7,7,0.173834,1.117633
[MO833] Paramount Iteration,15,7,0.173843,1.113901
[MO833] Paramount Iteration,1,7,0.174173,1.117986
[MO833] Paramount Iteration,0,8,0.096397,1.214242
[MO833] Paramount Iteration,3,8,0.096543,1.214661
[MO833] Paramount Iteration,4,8,0.096546,1.214218
[MO833] Paramount Iteration,8,8,0.096511,1.214265
[MO833] Paramount Iteration,6,8,0.096555,1.214209
[MO833] Paramount Iteration,1,8,0.096225,1.214253
[MO833] Paramount Iteration,2,8,0.096527,1.214672
[MO833] Paramount Iteration,12,8,0.096486,1.210447
[MO833] Paramount Iteration,5,8,0.096519,1.214226
[MO833] Paramount Iteration,10,8,0.096546,1.214260
[MO833] Paramount Iteration,9,8,0.096553,1.214279
[MO833] Paramount Iteration,7,8,0.096511,1.214201
[MO833] Paramount Iteration,14,8,0.096556,1.210478
[MO833] Paramount Iteration,13,8,0.096563,1.210457
[MO833] Paramount Iteration,11,8,0.096493,1.214251
[MO833] Paramount Iteration,15,8,0.096514,1.210471
[MO833] Paramount Iteration,0,9,0.096327,1.310656
[MO833] Paramount Iteration,3,9,0.096407,1.311087
[MO833] Paramount Iteration,12,9,0.096339,1.306863
[MO833] Paramount Iteration,4,9,0.096404,1.310642
[MO833] Paramount Iteration,8,9,0.096370,1.310686
[MO833] Paramount Iteration,6,9,0.096404,1.310630
[MO833] Paramount Iteration,14,9,0.096406,1.306898
[MO833] Paramount Iteration,1,9,0.096406,1.310668
[MO833] Paramount Iteration,2,9,0.096385,1.311101
[MO833] Paramount Iteration,13,9,0.096390,1.306873
[MO833] Paramount Iteration,5,9,0.096383,1.310653
[MO833] Paramount Iteration,10,9,0.096433,1.310702
[MO833] Paramount Iteration,9,9,0.096411,1.310700
[MO833] Paramount Iteration,7,9,0.096363,1.310622
[MO833] Paramount Iteration,15,9,0.096361,1.306890
[MO833] Paramount Iteration,11,9,0.096384,1.310694
[MO833] Paramount Iteration,0,10,0.096330,1.407012
[MO833] Paramount Iteration,1,10,0.096106,1.407023
[MO833] Paramount Iteration,2,10,0.096309,1.407450
[MO833] Paramount Iteration,12,10,0.096334,1.403254
[MO833] Paramount Iteration,4,10,0.096339,1.407007
[MO833] Paramount Iteration,10,10,0.096331,1.407044
[MO833] Paramount Iteration,8,10,0.096298,1.407036
[MO833] Paramount Iteration,6,10,0.096366,1.407009
[MO833] Paramount Iteration,14,10,0.096369,1.403279
[MO833] Paramount Iteration,3,10,0.096337,1.407443
[MO833] Paramount Iteration,13,10,0.096381,1.403261
[MO833] Paramount Iteration,5,10,0.096317,1.407018
[MO833] Paramount Iteration,11,10,0.096283,1.407036
[MO833] Paramount Iteration,9,10,0.096341,1.407050
[MO833] Paramount Iteration,7,10,0.096319,1.406997
[MO833] Paramount Iteration,15,10,0.096324,1.403269
[MO833] Paramount Iteration,12,11,0.176580,1.579894
[MO833] Paramount Iteration,4,11,0.176645,1.583675
[MO833] Paramount Iteration,6,11,0.176636,1.583658
[MO833] Paramount Iteration,14,11,0.176627,1.579916
[MO833] Paramount Iteration,0,11,0.176619,1.583701
[MO833] Paramount Iteration,2,11,0.176644,1.584130
[MO833] Paramount Iteration,13,11,0.176631,1.579904
[MO833] Paramount Iteration,5,11,0.176625,1.583686
[MO833] Paramount Iteration,10,11,0.176663,1.583720
[MO833] Paramount Iteration,8,11,0.176646,1.583735
[MO833] Paramount Iteration,7,11,0.176597,1.583653
[MO833] Paramount Iteration,15,11,0.176584,1.579907
[MO833] Paramount Iteration,1,11,0.176685,1.583717
[MO833] Paramount Iteration,3,11,0.176663,1.584123
[MO833] Paramount Iteration,11,11,0.176611,1.583712
[MO833] Paramount Iteration,9,11,0.176692,1.583751
[MO833] Paramount Iteration,0,12,0.098260,1.681991
[MO833] Paramount Iteration,12,12,0.098242,1.678195
[MO833] Paramount Iteration,4,12,0.098266,1.681966
[MO833] Paramount Iteration,8,12,0.098241,1.682030
[MO833] Paramount Iteration,6,12,0.098293,1.681962
[MO833] Paramount Iteration,1,12,0.098058,1.682004
[MO833] Paramount Iteration,2,12,0.098270,1.682439
[MO833] Paramount Iteration,13,12,0.098293,1.678205
[MO833] Paramount Iteration,5,12,0.098249,1.681980
[MO833] Paramount Iteration,10,12,0.098294,1.682027
[MO833] Paramount Iteration,9,12,0.098282,1.682044
[MO833] Paramount Iteration,7,12,0.098248,1.681953
[MO833] Paramount Iteration,14,12,0.098310,1.678235
[MO833] Paramount Iteration,3,12,0.098289,1.682431
[MO833] Paramount Iteration,11,12,0.098242,1.682020
[MO833] Paramount Iteration,15,12,0.098268,1.678226
[MO833] Paramount Iteration,0,13,0.097639,1.779715
[MO833] Paramount Iteration,4,13,0.097711,1.779704
[MO833] Paramount Iteration,1,13,0.097711,1.779727
[MO833] Paramount Iteration,2,13,0.097678,1.780153
[MO833] Paramount Iteration,12,13,0.097682,1.775935
[MO833] Paramount Iteration,5,13,0.097690,1.779717
[MO833] Paramount Iteration,10,13,0.097697,1.779737
[MO833] Paramount Iteration,8,13,0.097671,1.779753
[MO833] Paramount Iteration,6,13,0.097716,1.779697
[MO833] Paramount Iteration,14,13,0.097719,1.775965
[MO833] Paramount Iteration,3,13,0.097694,1.780144
[MO833] Paramount Iteration,13,13,0.097732,1.775945
[MO833] Paramount Iteration,11,13,0.097650,1.779731
[MO833] Paramount Iteration,9,13,0.097715,1.779767
[MO833] Paramount Iteration,7,13,0.097676,1.779693
[MO833] Paramount Iteration,15,13,0.097663,1.775955
[MO833] Paramount Iteration,0,14,0.178000,1.957796
[MO833] Paramount Iteration,1,14,0.178069,1.957808
[MO833] Paramount Iteration,3,14,0.178061,1.958223
[MO833] Paramount Iteration,12,14,0.178049,1.954044
[MO833] Paramount Iteration,4,14,0.178083,1.957812
[MO833] Paramount Iteration,10,14,0.178079,1.957835
[MO833] Paramount Iteration,8,14,0.178019,1.957826
[MO833] Paramount Iteration,6,14,0.178104,1.957812
[MO833] Paramount Iteration,2,14,0.178047,1.958235
[MO833] Paramount Iteration,13,14,0.178100,1.954054
[MO833] Paramount Iteration,5,14,0.178063,1.957824
[MO833] Paramount Iteration,11,14,0.178027,1.957827
[MO833] Paramount Iteration,9,14,0.178063,1.957840
[MO833] Paramount Iteration,7,14,0.178051,1.957802
[MO833] Paramount Iteration,14,14,0.178106,1.954081
[MO833] Paramount Iteration,15,14,0.178064,1.954072
[MO833] Paramount Iteration,0,15,0.098524,2.056384
[MO833] Paramount Iteration,3,15,0.098550,2.056792
[MO833] Paramount Iteration,12,15,0.098473,2.052565
[MO833] Paramount Iteration,4,15,0.098516,2.056358
[MO833] Paramount Iteration,8,15,0.098527,2.056403
[MO833] Paramount Iteration,6,15,0.098513,2.056341
[MO833] Paramount Iteration,14,15,0.098518,2.052610
[MO833] Paramount Iteration,1,15,0.098576,2.056394
[MO833] Paramount Iteration,2,15,0.098559,2.056838
[MO833] Paramount Iteration,13,15,0.098513,2.052574
[MO833] Paramount Iteration,5,15,0.098491,2.056367
[MO833] Paramount Iteration,10,15,0.098564,2.056412
[MO833] Paramount Iteration,9,15,0.098570,2.056418
[MO833] Paramount Iteration,7,15,0.098468,2.056331
[MO833] Paramount Iteration,15,15,0.098475,2.052601
[MO833] Paramount Iteration,11,15,0.098506,2.056399
[MO833] Paramount Iteration,0,16,0.097924,2.154382
[MO833] Paramount Iteration,12,16,0.097958,2.150583
[MO833] Paramount Iteration,4,16,0.097989,2.154369
[MO833] Paramount Iteration,1,16,0.097990,2.154392
[MO833] Paramount Iteration,3,16,0.098007,2.154820
[MO833] Paramount Iteration,13,16,0.098009,2.150593
[MO833] Paramount Iteration,5,16,0.097966,2.154380
[MO833] Paramount Iteration,10,16,0.097990,2.154411
[MO833] Paramount Iteration,8,16,0.097954,2.154412
[MO833] Paramount Iteration,6,16,0.098012,2.154365
[MO833] Paramount Iteration,14,16,0.098014,2.150633
[MO833] Paramount Iteration,2,16,0.097971,2.154828
[MO833] Paramount Iteration,11,16,0.097938,2.154404
[MO833] Paramount Iteration,9,16,0.098000,2.154427
[MO833] Paramount Iteration,7,16,0.097968,2.154355
[MO833] Paramount Iteration,15,16,0.097975,2.150626
[MO833] Paramount Iteration,0,17,0.177648,2.332108
[MO833] Paramount Iteration,8,17,0.177634,2.332101
[MO833] Paramount Iteration,1,17,0.177717,2.332118
[MO833] Paramount Iteration,2,17,0.177727,2.332596
[MO833] Paramount Iteration,12,17,0.177662,2.328306
[MO833] Paramount Iteration,4,17,0.177742,2.332132
[MO833] Paramount Iteration,10,17,0.177728,2.332157
[MO833] Paramount Iteration,9,17,0.177684,2.332121
[MO833] Paramount Iteration,6,17,0.177745,2.332123
[MO833] Paramount Iteration,14,17,0.177712,2.328356
[MO833] Paramount Iteration,3,17,0.177753,2.332589
[MO833] Paramount Iteration,13,17,0.177720,2.328321
[MO833] Paramount Iteration,5,17,0.177718,2.332142
[MO833] Paramount Iteration,11,17,0.177673,2.332146
[MO833] Paramount Iteration,7,17,0.177701,2.332115
[MO833] Paramount Iteration,15,17,0.177670,2.328346
[MO833] Paramount Iteration,0,18,0.099354,2.431518
[MO833] Paramount Iteration,2,18,0.099324,2.431956
[MO833] Paramount Iteration,12,18,0.099353,2.427719
[MO833] Paramount Iteration,4,18,0.099353,2.431508
[MO833] Paramount Iteration,8,18,0.099407,2.431559
[MO833] Paramount Iteration,6,18,0.099372,2.431502
[MO833] Paramount Iteration,14,18,0.099387,2.427754
[MO833] Paramount Iteration,1,18,0.099403,2.431530
[MO833] Paramount Iteration,3,18,0.099342,2.431949
[MO833] Paramount Iteration,13,18,0.099400,2.427728
[MO833] Paramount Iteration,5,18,0.099327,2.431517
[MO833] Paramount Iteration,10,18,0.099389,2.431559
[MO833] Paramount Iteration,9,18,0.099447,2.431575
[MO833] Paramount Iteration,7,18,0.099332,2.431494
[MO833] Paramount Iteration,15,18,0.099340,2.427744
[MO833] Paramount Iteration,11,18,0.099334,2.431550
[MO833] Paramount Iteration,0,19,0.098617,2.530223
[MO833] Paramount Iteration,3,19,0.098662,2.530628
[MO833] Paramount Iteration,1,19,0.098690,2.530235
[MO833] Paramount Iteration,2,19,0.098649,2.530640
[MO833] Paramount Iteration,12,19,0.098681,2.526460
[MO833] Paramount Iteration,4,19,0.098703,2.530233
[MO833] Paramount Iteration,10,19,0.098660,2.530251
[MO833] Paramount Iteration,8,19,0.098641,2.530255
[MO833] Paramount Iteration,6,19,0.098700,2.530211
[MO833] Paramount Iteration,14,19,0.098725,2.526489
[MO833] Paramount Iteration,13,19,0.098729,2.526467
[MO833] Paramount Iteration,5,19,0.098682,2.530245
[MO833] Paramount Iteration,11,19,0.098606,2.530244
[MO833] Paramount Iteration,9,19,0.098687,2.530270
[MO833] Paramount Iteration,7,19,0.098655,2.530199
[MO833] Paramount Iteration,15,19,0.098678,2.526476
[MO833] Paramount Iteration,0,20,0.177911,2.708199
[MO833] Paramount Iteration,3,20,0.177957,2.708603
[MO833] Paramount Iteration,12,20,0.177859,2.704379
[MO833] Paramount Iteration,4,20,0.177903,2.708161
[MO833] Paramount Iteration,8,20,0.177917,2.708226
[MO833] Paramount Iteration,6,20,0.177920,2.708144
[MO833] Paramount Iteration,14,20,0.177912,2.704409
[MO833] Paramount Iteration,1,20,0.177962,2.708208
[MO833] Paramount Iteration,2,20,0.177936,2.708618
[MO833] Paramount Iteration,13,20,0.177909,2.704388
[MO833] Paramount Iteration,5,20,0.177880,2.708172
[MO833] Paramount Iteration,10,20,0.177966,2.708231
[MO833] Paramount Iteration,9,20,0.177960,2.708239
[MO833] Paramount Iteration,7,20,0.177879,2.708137
[MO833] Paramount Iteration,15,20,0.177864,2.704400
[MO833] Paramount Iteration,11,20,0.177910,2.708220
[MO833] Paramount Iteration,0,21,0.098596,2.806870
[MO833] Paramount Iteration,2,21,0.098646,2.807308
[MO833] Paramount Iteration,12,21,0.098651,2.803090
[MO833] Paramount Iteration,4,21,0.098676,2.806863
[MO833] Paramount Iteration,8,21,0.098634,2.806912
[MO833] Paramount Iteration,6,21,0.098681,2.806838
[MO833] Paramount Iteration,14,21,0.098693,2.803113
[MO833] Paramount Iteration,1,21,0.098665,2.806882
[MO833] Paramount Iteration,3,21,0.098677,2.807300
[MO833] Paramount Iteration,13,21,0.098702,2.803100
[MO833] Paramount Iteration,5,21,0.098651,2.806872
[MO833] Paramount Iteration,10,21,0.098668,2.806907
[MO833] Paramount Iteration,9,21,0.098676,2.806925
[MO833] Paramount Iteration,7,21,0.098638,2.806830
[MO833] Paramount Iteration,15,21,0.098651,2.803104
[MO833] Paramount Iteration,11,21,0.098616,2.806899
[MO833] Paramount Iteration,0,22,0.099125,2.906021
[MO833] Paramount Iteration,3,22,0.099136,2.906454
[MO833] Paramount Iteration,12,22,0.099076,2.902224
[MO833] Paramount Iteration,4,22,0.099127,2.906012
[MO833] Paramount Iteration,8,22,0.099096,2.906062
[MO833] Paramount Iteration,6,22,0.099141,2.905998
[MO833] Paramount Iteration,14,22,0.099143,2.902267
[MO833] Paramount Iteration,1,22,0.098901,2.906034
[MO833] Paramount Iteration,2,22,0.099155,2.906499
[MO833] Paramount Iteration,13,22,0.099125,2.902234
[MO833] Paramount Iteration,5,22,0.099104,2.906022
[MO833] Paramount Iteration,10,22,0.099162,2.906082
[MO833] Paramount Iteration,9,22,0.099140,2.906076
[MO833] Paramount Iteration,7,22,0.099096,2.905988
[MO833] Paramount Iteration,15,22,0.099098,2.902256
[MO833] Paramount Iteration,11,22,0.099107,2.906071
[MO833] Paramount Iteration,0,23,0.179537,3.085586
[MO833] Paramount Iteration,1,23,0.179294,3.085599
[MO833] Paramount Iteration,2,23,0.179508,3.086026
[MO833] Paramount Iteration,12,23,0.179547,3.081829
[MO833] Paramount Iteration,4,23,0.179565,3.085599
[MO833] Paramount Iteration,10,23,0.179537,3.085630
[MO833] Paramount Iteration,8,23,0.179518,3.085634
[MO833] Paramount Iteration,6,23,0.179593,3.085606
[MO833] Paramount Iteration,14,23,0.179598,3.081873
[MO833] Paramount Iteration,3,23,0.179543,3.086017
[MO833] Paramount Iteration,13,23,0.179596,3.081839
[MO833] Paramount Iteration,5,23,0.179540,3.085610
[MO833] Paramount Iteration,11,23,0.179485,3.085622
[MO833] Paramount Iteration,9,23,0.179561,3.085647
[MO833] Paramount Iteration,7,23,0.179549,3.085596
[MO833] Paramount Iteration,15,23,0.179554,3.081865
[MO833] Paramount Iteration,3,24,0.099104,3.185139
[MO833] Paramount Iteration,12,24,0.099040,3.180930
[MO833] Paramount Iteration,4,24,0.099088,3.184712
[MO833] Paramount Iteration,6,24,0.099075,3.184691
[MO833] Paramount Iteration,0,24,0.099116,3.184731
[MO833] Paramount Iteration,2,24,0.099122,3.185182
[MO833] Paramount Iteration,13,24,0.099092,3.180941
[MO833] Paramount Iteration,5,24,0.099065,3.184723
[MO833] Paramount Iteration,10,24,0.099125,3.184767
[MO833] Paramount Iteration,8,24,0.099100,3.184786
[MO833] Paramount Iteration,7,24,0.099032,3.184683
[MO833] Paramount Iteration,14,24,0.099074,3.180957
[MO833] Paramount Iteration,1,24,0.098892,3.184745
[MO833] Paramount Iteration,11,24,0.099076,3.184759
[MO833] Paramount Iteration,9,24,0.099144,3.184800
[MO833] Paramount Iteration,15,24,0.099032,3.180948
[MO833] Paramount Iteration,0,25,0.099181,3.283943
[MO833] Paramount Iteration,1,25,0.099129,3.283955
[MO833] Paramount Iteration,3,25,0.099209,3.284367
[MO833] Paramount Iteration,12,25,0.099189,3.280179
[MO833] Paramount Iteration,4,25,0.099235,3.283972
[MO833] Paramount Iteration,10,25,0.099206,3.283985
[MO833] Paramount Iteration,8,25,0.099146,3.283988
[MO833] Paramount Iteration,6,25,0.099264,3.283967
[MO833] Paramount Iteration,2,25,0.099175,3.284377
[MO833] Paramount Iteration,13,25,0.099242,3.280191
[MO833] Paramount Iteration,5,25,0.099211,3.283982
[MO833] Paramount Iteration,11,25,0.099153,3.283976
[MO833] Paramount Iteration,9,25,0.099192,3.284002
[MO833] Paramount Iteration,7,25,0.099222,3.283959
[MO833] Paramount Iteration,14,25,0.099267,3.280236
[MO833] Paramount Iteration,15,25,0.099223,3.280229
[MO833] Paramount Iteration,0,26,0.178722,3.462693
[MO833] Paramount Iteration,2,26,0.178694,3.463112
[MO833] Paramount Iteration,12,26,0.178693,3.458929
[MO833] Paramount Iteration,4,26,0.178717,3.462711
[MO833] Paramount Iteration,10,26,0.178722,3.462716
[MO833] Paramount Iteration,8,26,0.178693,3.462732
[MO833] Paramount Iteration,6,26,0.178707,3.462690
[MO833] Paramount Iteration,1,26,0.178681,3.462704
[MO833] Paramount Iteration,3,26,0.178719,3.463104
[MO833] Paramount Iteration,13,26,0.178742,3.458939
[MO833] Paramount Iteration,5,26,0.178696,3.462723
[MO833] Paramount Iteration,11,26,0.178672,3.462707
[MO833] Paramount Iteration,9,26,0.178735,3.462746
[MO833] Paramount Iteration,7,26,0.178669,3.462686
[MO833] Paramount Iteration,14,26,0.178710,3.458960
[MO833] Paramount Iteration,15,26,0.178648,3.458950
[MO833] Paramount Iteration,0,27,0.097900,3.560854
[MO833] Paramount Iteration,3,27,0.098156,3.561279
[MO833] Paramount Iteration,12,27,0.098077,3.557062
[MO833] Paramount Iteration,4,27,0.098111,3.560846
[MO833] Paramount Iteration,6,27,0.098132,3.560833
[MO833] Paramount Iteration,1,27,0.098153,3.560865
[MO833] Paramount Iteration,2,27,0.098146,3.561295
[MO833] Paramount Iteration,13,27,0.098126,3.557072
[MO833] Paramount Iteration,5,27,0.098089,3.560857
[MO833] Paramount Iteration,10,27,0.098185,3.560910
[MO833] Paramount Iteration,8,27,0.098112,3.560900
[MO833] Paramount Iteration,7,27,0.098088,3.560822
[MO833] Paramount Iteration,14,27,0.098147,3.557119
[MO833] Paramount Iteration,11,27,0.098136,3.560902
[MO833] Paramount Iteration,9,27,0.098160,3.560914
[MO833] Paramount Iteration,15,27,0.098100,3.557109
[MO833] Paramount Iteration,12,28,0.099424,3.656548
[MO833] Paramount Iteration,4,28,0.099465,3.660337
[MO833] Paramount Iteration,6,28,0.099474,3.660321
[MO833] Paramount Iteration,0,28,0.099477,3.660359
[MO833] Paramount Iteration,2,28,0.099439,3.660781
[MO833] Paramount Iteration,13,28,0.099475,3.656558
[MO833] Paramount Iteration,5,28,0.099444,3.660348
[MO833] Paramount Iteration,10,28,0.099467,3.660390
[MO833] Paramount Iteration,8,28,0.099463,3.660419
[MO833] Paramount Iteration,7,28,0.099434,3.660315
[MO833] Paramount Iteration,14,28,0.099454,3.656584
[MO833] Paramount Iteration,1,28,0.099406,3.660373
[MO833] Paramount Iteration,3,28,0.099470,3.660772
[MO833] Paramount Iteration,11,28,0.099412,3.660380
[MO833] Paramount Iteration,9,28,0.099510,3.660435
[MO833] Paramount Iteration,15,28,0.099400,3.656577
[MO833] Paramount Iteration,0,29,0.177220,3.837610
[MO833] Paramount Iteration,12,29,0.177209,3.833816
[MO833] Paramount Iteration,4,29,0.177240,3.837602
[MO833] Paramount Iteration,6,29,0.177251,3.837583
[MO833] Paramount Iteration,1,29,0.177160,3.837623
[MO833] Paramount Iteration,2,29,0.177241,3.838057
[MO833] Paramount Iteration,13,29,0.177260,3.833826
[MO833] Paramount Iteration,5,29,0.177220,3.837615
[MO833] Paramount Iteration,10,29,0.177275,3.837675
[MO833] Paramount Iteration,8,29,0.177188,3.837661
[MO833] Paramount Iteration,7,29,0.177211,3.837577
[MO833] Paramount Iteration,14,29,0.177264,3.833860
[MO833] Paramount Iteration,3,29,0.177249,3.838039
[MO833] Paramount Iteration,11,29,0.177223,3.837666
[MO833] Paramount Iteration,9,29,0.177234,3.837678
[MO833] Paramount Iteration,15,29,0.177220,3.833851
[MO833] Paramount Iteration,0,30,0.097856,3.935494
[MO833] Paramount Iteration,4,30,0.097861,3.935488
[MO833] Paramount Iteration,1,30,0.097802,3.935506
[MO833] Paramount Iteration,2,30,0.097880,3.935942
[MO833] Paramount Iteration,12,30,0.097845,3.931722
[MO833] Paramount Iteration,5,30,0.097837,3.935496
[MO833] Paramount Iteration,8,30,0.097830,3.935546
[MO833] Paramount Iteration,6,30,0.097882,3.935479
[MO833] Paramount Iteration,14,30,0.097874,3.931744
[MO833] Paramount Iteration,3,30,0.097846,3.935931
[MO833] Paramount Iteration,13,30,0.097898,3.931734
[MO833] Paramount Iteration,10,30,0.097876,3.935562
[MO833] Paramount Iteration,9,30,0.097874,3.935561
[MO833] Paramount Iteration,7,30,0.097845,3.935477
[MO833] Paramount Iteration,15,30,0.097829,3.931736
[MO833] Paramount Iteration,11,30,0.097823,3.935553
[MO833] Paramount Iteration,0,31,0.097549,4.033070
[MO833] Paramount Iteration,2,31,0.097558,4.033506
[MO833] Paramount Iteration,12,31,0.097510,4.029296
[MO833] Paramount Iteration,4,31,0.097570,4.033079
[MO833] Paramount Iteration,8,31,0.097521,4.033121
[MO833] Paramount Iteration,6,31,0.097573,4.033068
[MO833] Paramount Iteration,1,31,0.097524,4.033082
[MO833] Paramount Iteration,3,31,0.097518,4.033499
[MO833] Paramount Iteration,13,31,0.097564,4.029306
[MO833] Paramount Iteration,5,31,0.097551,4.033091
[MO833] Paramount Iteration,10,31,0.097543,4.033117
[MO833] Paramount Iteration,9,31,0.097565,4.033135
[MO833] Paramount Iteration,7,31,0.097532,4.033062
[MO833] Paramount Iteration,14,31,0.097584,4.029339
[MO833] Paramount Iteration,11,31,0.097490,4.033109
[MO833] Paramount Iteration,15,31,0.097539,4.029331
[MO833] Paramount Iteration,0,32,0.176504,4.209807
[MO833] Paramount Iteration,2,32,0.176702,4.210214
[MO833] Paramount Iteration,12,32,0.176635,4.205992
[MO833] Paramount Iteration,4,32,0.176688,4.209792
[MO833] Paramount Iteration,10,32,0.176691,4.209824
[MO833] Paramount Iteration,8,32,0.176662,4.209836
[MO833] Paramount Iteration,6,32,0.176672,4.209756
[MO833] Paramount Iteration,14,32,0.176668,4.206018
[MO833] Paramount Iteration,1,32,0.176723,4.209819
[MO833] Paramount Iteration,3,32,0.176661,4.210206
[MO833] Paramount Iteration,13,32,0.176687,4.206002
[MO833] Paramount Iteration,5,32,0.176665,4.209802
[MO833] Paramount Iteration,11,32,0.176641,4.209816
[MO833] Paramount Iteration,9,32,0.176705,4.209850
[MO833] Paramount Iteration,7,32,0.176631,4.209750
[MO833] Paramount Iteration,15,32,0.176623,4.206008
[MO833] Paramount Iteration,0,33,0.097778,4.307663
[MO833] Paramount Iteration,12,33,0.097814,4.303863
[MO833] Paramount Iteration,4,33,0.097838,4.307650
[MO833] Paramount Iteration,6,33,0.097874,4.307641
[MO833] Paramount Iteration,14,33,0.097876,4.303904
[MO833] Paramount Iteration,1,33,0.097849,4.307675
[MO833] Paramount Iteration,2,33,0.097883,4.308103
[MO833] Paramount Iteration,13,33,0.097867,4.303876
[MO833] Paramount Iteration,5,33,0.097805,4.307664
[MO833] Paramount Iteration,10,33,0.097890,4.307725
[MO833] Paramount Iteration,8,33,0.097826,4.307713
[MO833] Paramount Iteration,7,33,0.097830,4.307632
[MO833] Paramount Iteration,15,33,0.097832,4.303897
[MO833] Paramount Iteration,3,33,0.097836,4.308091
[MO833] Paramount Iteration,11,33,0.097839,4.307715
[MO833] Paramount Iteration,9,33,0.097868,4.307727
[MO833] Paramount Iteration,0,34,0.097735,4.405476
[MO833] Paramount Iteration,2,34,0.097777,4.405886
[MO833] Paramount Iteration,12,34,0.097745,4.401663
[MO833] Paramount Iteration,4,34,0.097784,4.405462
[MO833] Paramount Iteration,10,34,0.097765,4.405500
[MO833] Paramount Iteration,8,34,0.097752,4.405515
[MO833] Paramount Iteration,14,34,0.097786,4.401702
[MO833] Paramount Iteration,1,34,0.097800,4.405486
[MO833] Paramount Iteration,3,34,0.097732,4.405873
[MO833] Paramount Iteration,13,34,0.097792,4.401674
[MO833] Paramount Iteration,5,34,0.097760,4.405472
[MO833] Paramount Iteration,11,34,0.097715,4.405493
[MO833] Paramount Iteration,9,34,0.097794,4.405530
[MO833] Paramount Iteration,6,34,0.097860,4.405515
[MO833] Paramount Iteration,15,34,0.097743,4.401694
[MO833] Paramount Iteration,7,34,0.097819,4.405507
[MO833] Paramount Iteration,0,35,0.188756,4.594312
[MO833] Paramount Iteration,1,35,0.188825,4.594321
[MO833] Paramount Iteration,2,35,0.188851,4.594743
[MO833] Paramount Iteration,12,35,0.188804,4.590527
[MO833] Paramount Iteration,4,35,0.188838,4.594322
[MO833] Paramount Iteration,10,35,0.188832,4.594345
[MO833] Paramount Iteration,8,35,0.188785,4.594352
[MO833] Paramount Iteration,6,35,0.188767,4.594290
[MO833] Paramount Iteration,14,35,0.188839,4.590551
[MO833] Paramount Iteration,3,35,0.188813,4.594735
[MO833] Paramount Iteration,13,35,0.188854,4.590537
[MO833] Paramount Iteration,5,35,0.188816,4.594334
[MO833] Paramount Iteration,11,35,0.188792,4.594337
[MO833] Paramount Iteration,9,35,0.188829,4.594366
[MO833] Paramount Iteration,7,35,0.188720,4.594286
[MO833] Paramount Iteration,15,35,0.188797,4.590544
[MO833] Paramount Iteration,0,36,0.115685,4.710067
[MO833] Paramount Iteration,2,36,0.115736,4.710485
[MO833] Paramount Iteration,12,36,0.115668,4.706256
[MO833] Paramount Iteration,4,36,0.115708,4.710051
[MO833] Paramount Iteration,10,36,0.115734,4.710091
[MO833] Paramount Iteration,8,36,0.115707,4.710112
[MO833] Paramount Iteration,6,36,0.115720,4.710027
[MO833] Paramount Iteration,14,36,0.115709,4.706276
[MO833] Paramount Iteration,1,36,0.115747,4.710077
[MO833] Paramount Iteration,3,36,0.115691,4.710476
[MO833] Paramount Iteration,13,36,0.115720,4.706266
[MO833] Paramount Iteration,5,36,0.115684,4.710061
[MO833] Paramount Iteration,11,36,0.115679,4.710082
[MO833] Paramount Iteration,9,36,0.115750,4.710126
[MO833] Paramount Iteration,7,36,0.115678,4.710021
[MO833] Paramount Iteration,15,36,0.115666,4.706270
[MO833] Paramount Iteration,2,37,0.103154,4.813646
[MO833] Paramount Iteration,12,37,0.103080,4.809402
[MO833] Paramount Iteration,4,37,0.103133,4.813205
[MO833] Paramount Iteration,8,37,0.103081,4.813251
[MO833] Paramount Iteration,6,37,0.103153,4.813192
[MO833] Paramount Iteration,14,37,0.103140,4.809433
[MO833] Paramount Iteration,0,37,0.102818,4.813210
[MO833] Paramount Iteration,3,37,0.103112,4.813638
[MO833] Paramount Iteration,13,37,0.103138,4.809413
[MO833] Paramount Iteration,5,37,0.103107,4.813215
[MO833] Paramount Iteration,10,37,0.103137,4.813243
[MO833] Paramount Iteration,9,37,0.103129,4.813266
[MO833] Paramount Iteration,7,37,0.103110,4.813184
[MO833] Paramount Iteration,15,37,0.103093,4.809425
[MO833] Paramount Iteration,1,37,0.103134,4.813222
[MO833] Paramount Iteration,11,37,0.103078,4.813234
[MO833] Paramount Iteration,0,38,0.187577,5.000876
[MO833] Paramount Iteration,3,38,0.187577,5.001265
[MO833] Paramount Iteration,12,38,0.187657,4.997126
[MO833] Paramount Iteration,4,38,0.187681,5.000905
[MO833] Paramount Iteration,10,38,0.187631,5.000892
[MO833] Paramount Iteration,8,38,0.187609,5.000920
[MO833] Paramount Iteration,6,38,0.187657,5.000858
[MO833] Paramount Iteration,14,38,0.187675,4.997119
[MO833] Paramount Iteration,1,38,0.187650,5.000883
[MO833] Paramount Iteration,2,38,0.187626,5.001278
[MO833] Paramount Iteration,13,38,0.187712,4.997136
[MO833] Paramount Iteration,5,38,0.187662,5.000918
[MO833] Paramount Iteration,11,38,0.187578,5.000885
[MO833] Paramount Iteration,9,38,0.187656,5.000935
[MO833] Paramount Iteration,7,38,0.187614,5.000849
[MO833] Paramount Iteration,15,38,0.187631,4.997112
[MO833] Paramount Iteration,0,39,0.109340,5.110241
[MO833] Paramount Iteration,2,39,0.109382,5.110666
[MO833] Paramount Iteration,12,39,0.109242,5.106442
[MO833] Paramount Iteration,4,39,0.109300,5.110232
[MO833] Paramount Iteration,10,39,0.109368,5.110277
[MO833] Paramount Iteration,8,39,0.109314,5.110295
[MO833] Paramount Iteration,6,39,0.109334,5.110209
[MO833] Paramount Iteration,14,39,0.109330,5.106469
[MO833] Paramount Iteration,1,39,0.109091,5.110251
[MO833] Paramount Iteration,3,39,0.109340,5.110658
[MO833] Paramount Iteration,13,39,0.109305,5.106451
[MO833] Paramount Iteration,5,39,0.109279,5.110244
[MO833] Paramount Iteration,11,39,0.109316,5.110269
[MO833] Paramount Iteration,9,39,0.109360,5.110307
[MO833] Paramount Iteration,7,39,0.109292,5.110203
[MO833] Paramount Iteration,15,39,0.109284,5.106462
[MO833] Paramount Iteration,0,40,0.101248,5.211512
[MO833] Paramount Iteration,2,40,0.101245,5.211918
[MO833] Paramount Iteration,12,40,0.101202,5.207704
[MO833] Paramount Iteration,4,40,0.101246,5.211500
[MO833] Paramount Iteration,10,40,0.101237,5.211529
[MO833] Paramount Iteration,8,40,0.101204,5.211561
[MO833] Paramount Iteration,6,40,0.101251,5.211475
[MO833] Paramount Iteration,14,40,0.101246,5.207736
[MO833] Paramount Iteration,1,40,0.101020,5.211517
[MO833] Paramount Iteration,3,40,0.101202,5.211910
[MO833] Paramount Iteration,13,40,0.101256,5.207716
[MO833] Paramount Iteration,5,40,0.101223,5.211510
[MO833] Paramount Iteration,11,40,0.101181,5.211521
[MO833] Paramount Iteration,9,40,0.101252,5.211574
[MO833] Paramount Iteration,7,40,0.101213,5.211470
[MO833] Paramount Iteration,15,40,0.101200,5.207729
[MO833] Paramount Iteration,0,41,0.182971,5.394503
[MO833] Paramount Iteration,3,41,0.182953,5.394912
[MO833] Paramount Iteration,4,41,0.182998,5.394519
[MO833] Paramount Iteration,8,41,0.182923,5.394546
[MO833] Paramount Iteration,6,41,0.182986,5.394478
[MO833] Paramount Iteration,1,41,0.182741,5.394515
[MO833] Paramount Iteration,2,41,0.183005,5.394929
[MO833] Paramount Iteration,12,41,0.182974,5.390742
[MO833] Paramount Iteration,5,41,0.182978,5.394532
[MO833] Paramount Iteration,10,41,0.183014,5.394558
[MO833] Paramount Iteration,9,41,0.182970,5.394559
[MO833] Paramount Iteration,7,41,0.182938,5.394467
[MO833] Paramount Iteration,14,41,0.182990,5.390746
[MO833] Paramount Iteration,13,41,0.183027,5.390752
[MO833] Paramount Iteration,11,41,0.182957,5.394550
[MO833] Paramount Iteration,15,41,0.182938,5.390733
[MO833] Paramount Iteration,0,42,0.102115,5.496693
[MO833] Paramount Iteration,12,42,0.102103,5.492906
[MO833] Paramount Iteration,4,42,0.102148,5.496694
[MO833] Paramount Iteration,10,42,0.102153,5.496732
[MO833] Paramount Iteration,8,42,0.102150,5.496753
[MO833] Paramount Iteration,6,42,0.102168,5.496664
[MO833] Paramount Iteration,14,42,0.102165,5.492923
[MO833] Paramount Iteration,1,42,0.102184,5.496708
[MO833] Paramount Iteration,2,42,0.102241,5.497176
[MO833] Paramount Iteration,13,42,0.102155,5.492916
[MO833] Paramount Iteration,5,42,0.102126,5.496705
[MO833] Paramount Iteration,11,42,0.102094,5.496723
[MO833] Paramount Iteration,9,42,0.102195,5.496766
[MO833] Paramount Iteration,7,42,0.102127,5.496658
[MO833] Paramount Iteration,15,42,0.102119,5.492916
[MO833] Paramount Iteration,3,42,0.102203,5.497168
[MO833] Paramount Iteration,0,43,0.100873,5.597665
[MO833] Paramount Iteration,2,43,0.100918,5.598100
[MO833] Paramount Iteration,12,43,0.100906,5.593875
[MO833] Paramount Iteration,4,43,0.100952,5.597669
[MO833] Paramount Iteration,10,43,0.100983,5.597729
[MO833] Paramount Iteration,8,43,0.100915,5.597725
[MO833] Paramount Iteration,6,43,0.100970,5.597644
[MO833] Paramount Iteration,14,43,0.100962,5.593899
[MO833] Paramount Iteration,1,43,0.100959,5.597680
[MO833] Paramount Iteration,3,43,0.100860,5.598089
[MO833] Paramount Iteration,13,43,0.100960,5.593887
[MO833] Paramount Iteration,5,43,0.100927,5.597678
[MO833] Paramount Iteration,11,43,0.100926,5.597720
[MO833] Paramount Iteration,9,43,0.100962,5.597740
[MO833] Paramount Iteration,7,43,0.100931,5.597639
[MO833] Paramount Iteration,15,43,0.100916,5.593891
[MO833] Paramount Iteration,0,44,0.182090,5.779787
[MO833] Paramount Iteration,2,44,0.182107,5.780213
[MO833] Paramount Iteration,12,44,0.182052,5.776005
[MO833] Paramount Iteration,4,44,0.182100,5.779790
[MO833] Paramount Iteration,1,44,0.181860,5.779801
[MO833] Paramount Iteration,3,44,0.182060,5.780201
[MO833] Paramount Iteration,13,44,0.182118,5.776015
[MO833] Paramount Iteration,5,44,0.182079,5.779802
[MO833] Paramount Iteration,10,44,0.182112,5.779855
[MO833] Paramount Iteration,8,44,0.182063,5.779849
[MO833] Paramount Iteration,11,44,0.182057,5.779846
[MO833] Paramount Iteration,9,44,0.182110,5.779864
[MO833] Paramount Iteration,6,44,0.182217,5.779873
[MO833] Paramount Iteration,14,44,0.182130,5.776095
[MO833] Paramount Iteration,7,44,0.182175,5.779865
[MO833] Paramount Iteration,15,44,0.182163,5.776079
[MO833] Paramount Iteration,0,45,0.099636,5.879507
[MO833] Paramount Iteration,2,45,0.099703,5.879922
[MO833] Paramount Iteration,4,45,0.099705,5.879521
[MO833] Paramount Iteration,1,45,0.099702,5.879518
[MO833] Paramount Iteration,3,45,0.099658,5.879911
[MO833] Paramount Iteration,12,45,0.099682,5.875748
[MO833] Paramount Iteration,5,45,0.099675,5.879537
[MO833] Paramount Iteration,10,45,0.099682,5.879547
[MO833] Paramount Iteration,8,45,0.099652,5.879556
[MO833] Paramount Iteration,6,45,0.099618,5.879498
[MO833] Paramount Iteration,14,45,0.099603,5.875755
[MO833] Paramount Iteration,13,45,0.099733,5.875758
[MO833] Paramount Iteration,11,45,0.099629,5.879539
[MO833] Paramount Iteration,9,45,0.099696,5.879569
[MO833] Paramount Iteration,7,45,0.099568,5.879492
[MO833] Paramount Iteration,15,45,0.099632,5.875744
[MO833] Paramount Iteration,0,46,0.099234,5.978815
[MO833] Paramount Iteration,2,46,0.099302,5.979231
[MO833] Paramount Iteration,12,46,0.099208,5.975016
[MO833] Paramount Iteration,4,46,0.099266,5.978814
[MO833] Paramount Iteration,6,46,0.099267,5.978775
[MO833] Paramount Iteration,14,46,0.099224,5.975040
[MO833] Paramount Iteration,1,46,0.099296,5.978825
[MO833] Paramount Iteration,3,46,0.099256,5.979219
[MO833] Paramount Iteration,13,46,0.099259,5.975026
[MO833] Paramount Iteration,5,46,0.099245,5.978825
[MO833] Paramount Iteration,10,46,0.099318,5.978878
[MO833] Paramount Iteration,8,46,0.099269,5.978884
[MO833] Paramount Iteration,7,46,0.099220,5.978765
[MO833] Paramount Iteration,15,46,0.099261,5.975031
[MO833] Paramount Iteration,11,46,0.099266,5.978869
[MO833] Paramount Iteration,9,46,0.099315,5.978898
[MO833] Paramount Iteration,0,47,0.183843,6.162738
[MO833] Paramount Iteration,2,47,0.183932,6.163169
[MO833] Paramount Iteration,12,47,0.183856,6.158934
[MO833] Paramount Iteration,4,47,0.183901,6.162737
[MO833] Paramount Iteration,6,47,0.183925,6.162717
[MO833] Paramount Iteration,14,47,0.183866,6.158961
[MO833] Paramount Iteration,1,47,0.183911,6.162750
[MO833] Paramount Iteration,3,47,0.183886,6.163156
[MO833] Paramount Iteration,13,47,0.183908,6.158943
[MO833] Paramount Iteration,5,47,0.183878,6.162747
[MO833] Paramount Iteration,8,47,0.183861,6.162800
[MO833] Paramount Iteration,7,47,0.183885,6.162709
[MO833] Paramount Iteration,15,47,0.183898,6.158953
[MO833] Paramount Iteration,10,47,0.183913,6.162805
[MO833] Paramount Iteration,9,47,0.183905,6.162813
[MO833] Paramount Iteration,11,47,0.183858,6.162796
[MO833] Paramount Iteration,0,48,0.100741,6.263556
[MO833] Paramount Iteration,2,48,0.100816,6.263995
[MO833] Paramount Iteration,12,48,0.100776,6.259768
[MO833] Paramount Iteration,4,48,0.100804,6.263564
[MO833] Paramount Iteration,8,48,0.100766,6.263619
[MO833] Paramount Iteration,6,48,0.100819,6.263545
[MO833] Paramount Iteration,1,48,0.100810,6.263571
[MO833] Paramount Iteration,3,48,0.100773,6.263985
[MO833] Paramount Iteration,13,48,0.100828,6.259779
[MO833] Paramount Iteration,5,48,0.100777,6.263573
[MO833] Paramount Iteration,10,48,0.100805,6.263622
[MO833] Paramount Iteration,9,48,0.100812,6.263636
[MO833] Paramount Iteration,7,48,0.100780,6.263541
[MO833] Paramount Iteration,14,48,0.100848,6.259868
[MO833] Paramount Iteration,11,48,0.100749,6.263612
[MO833] Paramount Iteration,15,48,0.100882,6.259859
[MO833] Paramount Iteration,0,49,0.107166,6.370753
[MO833] Paramount Iteration,3,49,0.107088,6.371124
[MO833] Paramount Iteration,12,49,0.107123,6.366949
[MO833] Paramount Iteration,4,49,0.107159,6.370743
[MO833] Paramount Iteration,10,49,0.107136,6.370770
[MO833] Paramount Iteration,8,49,0.107138,6.370819
[MO833] Paramount Iteration,6,49,0.107112,6.370687
[MO833] Paramount Iteration,14,49,0.107012,6.366945
[MO833] Paramount Iteration,1,49,0.106931,6.370760
[MO833] Paramount Iteration,2,49,0.107137,6.371139
[MO833] Paramount Iteration,13,49,0.107173,6.366960
[MO833] Paramount Iteration,5,49,0.107121,6.370752
[MO833] Paramount Iteration,11,49,0.107080,6.370762
[MO833] Paramount Iteration,9,49,0.107182,6.370833
[MO833] Paramount Iteration,7,49,0.107070,6.370680
[MO833] Paramount Iteration,15,49,0.107046,6.366936
[MO833] Paramount Iteration,1,50,0.194709,6.565730
[MO833] Paramount Iteration,2,50,0.195061,6.566206
[MO833] Paramount Iteration,3,50,0.195225,6.566403
[MO833] Paramount Iteration,4,50,0.195432,6.566199
[MO833] Paramount Iteration,5,50,0.195572,6.566370
[MO833] Paramount Iteration,6,50,0.195785,6.566490
[MO833] Paramount Iteration,7,50,0.195916,6.566655
[MO833] Paramount Iteration,8,50,0.196018,6.566892
[MO833] Paramount Iteration,9,50,0.196310,6.567155
[MO833] Paramount Iteration,10,50,0.196497,6.567281
[MO833] Paramount Iteration,11,50,0.196644,6.567473
[MO833] Paramount Iteration,12,50,0.196831,6.563839
[MO833] Paramount Iteration,13,50,0.197049,6.564016
[MO833] Paramount Iteration,14,50,0.197177,6.564180
[MO833] Paramount Iteration,15,50,0.197392,6.564352
[MO833] Paramount Iteration,0,50,0.197470,6.568248
[MO833] Paramount Iteration,0,51,0.101587,6.669875
[MO833] Paramount Iteration,2,51,0.104081,6.670301
[MO833] Paramount Iteration,12,51,0.102190,6.666089
[MO833] Paramount Iteration,4,51,0.103661,6.669875
[MO833] Paramount Iteration,6,51,0.103341,6.669848
[MO833] Paramount Iteration,14,51,0.101866,6.666104
[MO833] Paramount Iteration,1,51,0.104060,6.669888
[MO833] Paramount Iteration,3,51,0.103857,6.670290
[MO833] Paramount Iteration,13,51,0.102074,6.666101
[MO833] Paramount Iteration,5,51,0.103491,6.669886
[MO833] Paramount Iteration,10,51,0.102624,6.669929
[MO833] Paramount Iteration,8,51,0.103008,6.669947
[MO833] Paramount Iteration,7,51,0.103152,6.669843
[MO833] Paramount Iteration,15,51,0.101730,6.666096
[MO833] Paramount Iteration,11,51,0.102423,6.669922
[MO833] Paramount Iteration,9,51,0.102793,6.669961
[MO833] Paramount Iteration,0,52,0.113911,6.783871
[MO833] Paramount Iteration,2,52,0.113990,6.784297
[MO833] Paramount Iteration,12,52,0.113940,6.780085
[MO833] Paramount Iteration,4,52,0.113974,6.783874
[MO833] Paramount Iteration,8,52,0.113934,6.783937
[MO833] Paramount Iteration,6,52,0.113987,6.783852
[MO833] Paramount Iteration,14,52,0.113941,6.780105
[MO833] Paramount Iteration,1,52,0.113983,6.783884
[MO833] Paramount Iteration,3,52,0.113947,6.784284
[MO833] Paramount Iteration,13,52,0.113989,6.780096
[MO833] Paramount Iteration,5,52,0.113942,6.783885
[MO833] Paramount Iteration,10,52,0.113985,6.783930
[MO833] Paramount Iteration,9,52,0.113981,6.783952
[MO833] Paramount Iteration,7,52,0.113946,6.783845
[MO833] Paramount Iteration,15,52,0.113975,6.780096
[MO833] Paramount Iteration,11,52,0.113932,6.783923
[MO833] Paramount Iteration,12,53,0.186342,6.966487
[MO833] Paramount Iteration,4,53,0.186375,6.970275
[MO833] Paramount Iteration,6,53,0.186392,6.970254
[MO833] Paramount Iteration,0,53,0.186312,6.970269
[MO833] Paramount Iteration,2,53,0.186402,6.970705
[MO833] Paramount Iteration,13,53,0.186394,6.966497
[MO833] Paramount Iteration,5,53,0.186354,6.970286
[MO833] Paramount Iteration,10,53,0.186398,6.970341
[MO833] Paramount Iteration,8,53,0.186344,6.970337
[MO833] Paramount Iteration,7,53,0.186350,6.970247
[MO833] Paramount Iteration,14,53,0.186346,6.966513
[MO833] Paramount Iteration,1,53,0.186383,6.970280
[MO833] Paramount Iteration,3,53,0.186361,6.970694
[MO833] Paramount Iteration,11,53,0.186344,6.970333
[MO833] Paramount Iteration,9,53,0.186389,6.970351
[MO833] Paramount Iteration,15,53,0.186381,6.966504
[MO833] Paramount Iteration,0,54,0.112175,7.082539
[MO833] Paramount Iteration,12,54,0.112198,7.078743
[MO833] Paramount Iteration,4,54,0.112243,7.082539
[MO833] Paramount Iteration,6,54,0.112248,7.082519
[MO833] Paramount Iteration,1,54,0.112240,7.082549
[MO833] Paramount Iteration,2,54,0.112255,7.082967
[MO833] Paramount Iteration,13,54,0.112248,7.078753
[MO833] Paramount Iteration,5,54,0.112217,7.082546
[MO833] Paramount Iteration,10,54,0.112229,7.082584
[MO833] Paramount Iteration,8,54,0.112207,7.082596
[MO833] Paramount Iteration,7,54,0.112206,7.082513
[MO833] Paramount Iteration,14,54,0.112198,7.078771
[MO833] Paramount Iteration,3,54,0.112204,7.082960
[MO833] Paramount Iteration,11,54,0.112175,7.082576
[MO833] Paramount Iteration,9,54,0.112250,7.082610
[MO833] Paramount Iteration,15,54,0.112234,7.078763
[MO833] Paramount Iteration,0,55,0.098214,7.180831
[MO833] Paramount Iteration,12,55,0.098243,7.177047
[MO833] Paramount Iteration,4,55,0.098287,7.180844
[MO833] Paramount Iteration,6,55,0.098289,7.180819
[MO833] Paramount Iteration,1,55,0.098285,7.180843
[MO833] Paramount Iteration,3,55,0.098240,7.181255
[MO833] Paramount Iteration,13,55,0.098294,7.177057
[MO833] Paramount Iteration,5,55,0.098261,7.180851
[MO833] Paramount Iteration,10,55,0.098306,7.180904
[MO833] Paramount Iteration,8,55,0.098253,7.180900
[MO833] Paramount Iteration,7,55,0.098246,7.180811
[MO833] Paramount Iteration,14,55,0.098243,7.177071
[MO833] Paramount Iteration,2,55,0.098297,7.181272
[MO833] Paramount Iteration,11,55,0.098248,7.180890
[MO833] Paramount Iteration,9,55,0.098296,7.180914
[MO833] Paramount Iteration,15,55,0.098276,7.177062
[MO833] Paramount Iteration,0,56,0.177536,7.358392
[MO833] Paramount Iteration,2,56,0.177528,7.358807
[MO833] Paramount Iteration,12,56,0.177474,7.354581
[MO833] Paramount Iteration,4,56,0.177522,7.358385
[MO833] Paramount Iteration,10,56,0.177516,7.358427
[MO833] Paramount Iteration,8,56,0.177508,7.358460
[MO833] Paramount Iteration,6,56,0.177524,7.358360
[MO833] Paramount Iteration,14,56,0.177501,7.354621
[MO833] Paramount Iteration,1,56,0.177315,7.358405
[MO833] Paramount Iteration,3,56,0.177485,7.358799
[MO833] Paramount Iteration,13,56,0.177525,7.354591
[MO833] Paramount Iteration,5,56,0.177498,7.358394
[MO833] Paramount Iteration,11,56,0.177464,7.358418
[MO833] Paramount Iteration,9,56,0.177551,7.358475
[MO833] Paramount Iteration,7,56,0.177484,7.358355
[MO833] Paramount Iteration,15,56,0.177527,7.354612
[MO833] Paramount Iteration,0,57,0.098423,7.456840
[MO833] Paramount Iteration,4,57,0.098443,7.456847
[MO833] Paramount Iteration,1,57,0.098198,7.456850
[MO833] Paramount Iteration,3,57,0.098388,7.457247
[MO833] Paramount Iteration,12,57,0.098405,7.453049
[MO833] Paramount Iteration,5,57,0.098419,7.456856
[MO833] Paramount Iteration,10,57,0.098463,7.456901
[MO833] Paramount Iteration,8,57,0.098377,7.456900
[MO833] Paramount Iteration,6,57,0.098445,7.456817
[MO833] Paramount Iteration,14,57,0.098402,7.453084
[MO833] Paramount Iteration,2,57,0.098450,7.457266
[MO833] Paramount Iteration,13,57,0.098459,7.453059
[MO833] Paramount Iteration,11,57,0.098411,7.456892
[MO833] Paramount Iteration,9,57,0.098430,7.456914
[MO833] Paramount Iteration,7,57,0.098403,7.456808
[MO833] Paramount Iteration,15,57,0.098439,7.453075
[MO833] Paramount Iteration,0,58,0.098732,7.555648
[MO833] Paramount Iteration,2,58,0.098811,7.556083
[MO833] Paramount Iteration,12,58,0.098756,7.551856
[MO833] Paramount Iteration,4,58,0.098783,7.555653
[MO833] Paramount Iteration,8,58,0.098765,7.555719
[MO833] Paramount Iteration,6,58,0.098795,7.555629
[MO833] Paramount Iteration,14,58,0.098745,7.551887
[MO833] Paramount Iteration,1,58,0.098798,7.555657
[MO833] Paramount Iteration,3,58,0.098759,7.556061
[MO833] Paramount Iteration,13,58,0.098798,7.551866
[MO833] Paramount Iteration,5,58,0.098758,7.555660
[MO833] Paramount Iteration,10,58,0.098801,7.555712
[MO833] Paramount Iteration,9,58,0.098810,7.555734
[MO833] Paramount Iteration,7,58,0.098756,7.555625
[MO833] Paramount Iteration,15,58,0.098781,7.551879
[MO833] Paramount Iteration,11,58,0.098750,7.555703
[MO833] Paramount Iteration,0,59,0.178653,7.734387
[MO833] Paramount Iteration,4,59,0.178722,7.734397
[MO833] Paramount Iteration,6,59,0.178747,7.734388
[MO833] Paramount Iteration,1,59,0.178729,7.734401
[MO833] Paramount Iteration,2,59,0.178745,7.734834
[MO833] Paramount Iteration,12,59,0.178690,7.730606
[MO833] Paramount Iteration,5,59,0.178703,7.734410
[MO833] Paramount Iteration,10,59,0.178732,7.734457
[MO833] Paramount Iteration,8,59,0.178689,7.734461
[MO833] Paramount Iteration,7,59,0.178704,7.734380
[MO833] Paramount Iteration,14,59,0.178689,7.730626
[MO833] Paramount Iteration,3,59,0.178678,7.734825
[MO833] Paramount Iteration,13,59,0.178741,7.730616
[MO833] Paramount Iteration,11,59,0.178680,7.734450
[MO833] Paramount Iteration,9,59,0.178732,7.734475
[MO833] Paramount Iteration,15,59,0.178716,7.730618
[MO833] Paramount Iteration,2,60,0.146422,7.881263
[MO833] Paramount Iteration,12,60,0.146427,7.877097
[MO833] Paramount Iteration,10,60,0.146405,7.880877
[MO833] Paramount Iteration,8,60,0.146413,7.880923
[MO833] Paramount Iteration,1,60,0.146464,7.880874
[MO833] Paramount Iteration,13,60,0.146467,7.877093
[MO833] Paramount Iteration,5,60,0.146437,7.880889
[MO833] Paramount Iteration,9,60,0.146442,7.880925
[MO833] Paramount Iteration,6,60,0.146520,7.880916
[MO833] Paramount Iteration,14,60,0.146434,7.877140
[MO833] Paramount Iteration,3,60,0.146562,7.881444
[MO833] Paramount Iteration,4,60,0.146621,7.881041
[MO833] Paramount Iteration,11,60,0.146507,7.881024
[MO833] Paramount Iteration,7,60,0.146665,7.881097
[MO833] Paramount Iteration,15,60,0.146638,7.877280
[MO833] Paramount Iteration,0,60,0.146811,7.881277
[MO833] Paramount Iteration,0,61,0.097915,7.979239
[MO833] Paramount Iteration,3,61,0.098168,7.979637
[MO833] Paramount Iteration,12,61,0.098283,7.975444
[MO833] Paramount Iteration,4,61,0.098190,7.979245
[MO833] Paramount Iteration,6,61,0.098273,7.979210
[MO833] Paramount Iteration,14,61,0.098266,7.975464
[MO833] Paramount Iteration,1,61,0.098265,7.979253
[MO833] Paramount Iteration,2,61,0.098368,7.979650
[MO833] Paramount Iteration,13,61,0.098341,7.975454
[MO833] Paramount Iteration,5,61,0.098313,7.979255
[MO833] Paramount Iteration,10,61,0.098391,7.979290
[MO833] Paramount Iteration,8,61,0.098341,7.979321
[MO833] Paramount Iteration,7,61,0.098082,7.979203
[MO833] Paramount Iteration,15,61,0.098161,7.975455
[MO833] Paramount Iteration,11,61,0.098223,7.979282
[MO833] Paramount Iteration,9,61,0.098390,7.979337
[MO833] Paramount Iteration,0,62,0.177577,8.157069
[MO833] Paramount Iteration,2,62,0.177838,8.157494
[MO833] Paramount Iteration,12,62,0.177783,8.153287
[MO833] Paramount Iteration,4,62,0.177809,8.157075
[MO833] Paramount Iteration,10,62,0.177817,8.157120
[MO833] Paramount Iteration,8,62,0.177767,8.157142
[MO833] Paramount Iteration,6,62,0.177813,8.157043
[MO833] Paramount Iteration,14,62,0.177789,8.153311
[MO833] Paramount Iteration,1,62,0.177813,8.157080
[MO833] Paramount Iteration,3,62,0.177794,8.157481
[MO833] Paramount Iteration,13,62,0.177833,8.153296
[MO833] Paramount Iteration,5,62,0.177788,8.157086
[MO833] Paramount Iteration,11,62,0.177774,8.157111
[MO833] Paramount Iteration,9,62,0.177810,8.157156
[MO833] Paramount Iteration,7,62,0.177767,8.157036
[MO833] Paramount Iteration,15,62,0.177822,8.153301
[MO833] Paramount Iteration,0,63,0.098006,8.255327
[MO833] Paramount Iteration,4,63,0.098225,8.255325
[MO833] Paramount Iteration,1,63,0.098241,8.255336
[MO833] Paramount Iteration,12,63,0.098203,8.251552
[MO833] Paramount Iteration,5,63,0.098207,8.255340
[MO833] Paramount Iteration,8,63,0.098226,8.255420
[MO833] Paramount Iteration,13,63,0.098255,8.251562
[MO833] Paramount Iteration,10,63,0.098283,8.255414
[MO833] Paramount Iteration,9,63,0.098271,8.255436
[MO833] Paramount Iteration,14,63,0.098228,8.251611
[MO833] Paramount Iteration,2,63,0.098319,8.255819
[MO833] Paramount Iteration,11,63,0.098232,8.255404
[MO833] Paramount Iteration,6,63,0.098335,8.255398
[MO833] Paramount Iteration,15,63,0.098272,8.251597
[MO833] Paramount Iteration,3,63,0.098281,8.255812
[MO833] Paramount Iteration,7,63,0.098291,8.255390
[MO833] Paramount Iteration,0,64,0.098619,8.353971
[MO833] Paramount Iteration,12,64,0.098579,8.350191
[MO833] Paramount Iteration,4,64,0.098644,8.353998
[MO833] Paramount Iteration,1,64,0.098597,8.353986
[MO833] Paramount Iteration,3,64,0.098528,8.354390
[MO833] Paramount Iteration,13,64,0.098630,8.350201
[MO833] Paramount Iteration,5,64,0.098624,8.354009
[MO833] Paramount Iteration,10,64,0.098624,8.354052
[MO833] Paramount Iteration,8,64,0.098586,8.354057
[MO833] Paramount Iteration,6,64,0.098585,8.353995
[MO833] Paramount Iteration,14,64,0.098609,8.350228
[MO833] Paramount Iteration,2,64,0.098581,8.354408
[MO833] Paramount Iteration,11,64,0.098568,8.354038
[MO833] Paramount Iteration,9,64,0.098630,8.354073
[MO833] Paramount Iteration,7,64,0.098540,8.353987
[MO833] Paramount Iteration,15,64,0.098553,8.350215
[MO833] Paramount Iteration,0,65,0.178225,8.532224
[MO833] Paramount Iteration,12,65,0.178203,8.528454
[MO833] Paramount Iteration,4,65,0.178235,8.532254
[MO833] Paramount Iteration,1,65,0.178177,8.532241
[MO833] Paramount Iteration,13,65,0.178253,8.528463
[MO833] Paramount Iteration,5,65,0.178212,8.532264
[MO833] Paramount Iteration,10,65,0.178248,8.532308
[MO833] Paramount Iteration,8,65,0.178207,8.532312
[MO833] Paramount Iteration,2,65,0.178300,8.532713
[MO833] Paramount Iteration,11,65,0.178195,8.532298
[MO833] Paramount Iteration,9,65,0.178250,8.532329
[MO833] Paramount Iteration,14,65,0.178300,8.528538
[MO833] Paramount Iteration,3,65,0.178263,8.532705
[MO833] Paramount Iteration,6,65,0.178323,8.532328
[MO833] Paramount Iteration,15,65,0.178253,8.528526
[MO833] Paramount Iteration,7,65,0.178281,8.532320
[MO833] Paramount Iteration,0,66,0.097890,8.630143
[MO833] Paramount Iteration,3,66,0.097793,8.630550
[MO833] Paramount Iteration,4,66,0.097911,8.630187
[MO833] Paramount Iteration,8,66,0.097840,8.630212
[MO833] Paramount Iteration,1,66,0.097860,8.630155
[MO833] Paramount Iteration,2,66,0.097847,8.630567
[MO833] Paramount Iteration,12,66,0.097884,8.626400
[MO833] Paramount Iteration,5,66,0.097889,8.630199
[MO833] Paramount Iteration,10,66,0.097885,8.630207
[MO833] Paramount Iteration,9,66,0.097886,8.630228
[MO833] Paramount Iteration,6,66,0.097777,8.630161
[MO833] Paramount Iteration,14,66,0.097878,8.626423
[MO833] Paramount Iteration,13,66,0.097938,8.626411
[MO833] Paramount Iteration,11,66,0.097831,8.630194
[MO833] Paramount Iteration,7,66,0.097808,8.630151
[MO833] Paramount Iteration,15,66,0.097827,8.626414
[MO833] Paramount Iteration,0,67,0.100109,8.730503
[MO833] Paramount Iteration,3,67,0.100316,8.730919
[MO833] Paramount Iteration,12,67,0.100247,8.726708
[MO833] Paramount Iteration,4,67,0.100298,8.730509
[MO833] Paramount Iteration,8,67,0.100318,8.730583
[MO833] Paramount Iteration,6,67,0.100265,8.730488
[MO833] Paramount Iteration,14,67,0.100312,8.726746
[MO833] Paramount Iteration,1,67,0.100348,8.730512
[MO833] Paramount Iteration,2,67,0.100360,8.730932
[MO833] Paramount Iteration,13,67,0.100297,8.726717
[MO833] Paramount Iteration,5,67,0.100273,8.730517
[MO833] Paramount Iteration,10,67,0.100362,8.730577
[MO833] Paramount Iteration,9,67,0.100361,8.730597
[MO833] Paramount Iteration,7,67,0.100298,8.730480
[MO833] Paramount Iteration,15,67,0.100267,8.726737
[MO833] Paramount Iteration,11,67,0.100308,8.730564
[MO833] Paramount Iteration,3,68,0.178810,8.909782
[MO833] Paramount Iteration,12,68,0.178818,8.905588
[MO833] Paramount Iteration,4,68,0.178857,8.909385
[MO833] Paramount Iteration,6,68,0.178808,8.909352
[MO833] Paramount Iteration,14,68,0.178845,8.905603
[MO833] Paramount Iteration,1,68,0.178902,8.909429
[MO833] Paramount Iteration,2,68,0.178857,8.909799
[MO833] Paramount Iteration,13,68,0.178870,8.905598
[MO833] Paramount Iteration,5,68,0.178838,8.909398
[MO833] Paramount Iteration,10,68,0.178880,8.909465
[MO833] Paramount Iteration,8,68,0.178821,8.909458
[MO833] Paramount Iteration,7,68,0.178839,8.909344
[MO833] Paramount Iteration,15,68,0.178800,8.905595
[MO833] Paramount Iteration,11,68,0.178830,8.909456
[MO833] Paramount Iteration,9,68,0.178868,8.909475
[MO833] Paramount Iteration,0,68,0.178657,8.909417
[MO833] Paramount Iteration,0,69,0.098179,9.007837
[MO833] Paramount Iteration,12,69,0.098408,9.004059
[MO833] Paramount Iteration,4,69,0.098448,9.007861
[MO833] Paramount Iteration,6,69,0.098427,9.007841
[MO833] Paramount Iteration,1,69,0.098329,9.007850
[MO833] Paramount Iteration,2,69,0.098467,9.008271
[MO833] Paramount Iteration,13,69,0.098462,9.004069
[MO833] Paramount Iteration,5,69,0.098426,9.007873
[MO833] Paramount Iteration,10,69,0.098435,9.007913
[MO833] Paramount Iteration,8,69,0.098419,9.007924
[MO833] Paramount Iteration,7,69,0.098465,9.007836
[MO833] Paramount Iteration,14,69,0.098467,9.004082
[MO833] Paramount Iteration,3,69,0.098424,9.008261
[MO833] Paramount Iteration,11,69,0.098381,9.007905
[MO833] Paramount Iteration,9,69,0.098456,9.007938
[MO833] Paramount Iteration,15,69,0.098425,9.004074
[MO833] Paramount Iteration,3,70,0.133697,9.142009
[MO833] Paramount Iteration,7,70,0.133725,9.141582
[MO833] Paramount Iteration,0,70,0.133574,9.141648
[MO833] Paramount Iteration,12,70,0.133740,9.137856
[MO833] Paramount Iteration,4,70,0.133774,9.141657
[MO833] Paramount Iteration,11,70,0.133686,9.141657
[MO833] Paramount Iteration,8,70,0.133749,9.141728
[MO833] Paramount Iteration,15,70,0.133713,9.137841
[MO833] Paramount Iteration,2,70,0.133869,9.142146
[MO833] Paramount Iteration,13,70,0.133922,9.137999
[MO833] Paramount Iteration,10,70,0.133856,9.141784
[MO833] Paramount Iteration,6,70,0.133869,9.141767
[MO833] Paramount Iteration,14,70,0.133898,9.137992
[MO833] Paramount Iteration,5,70,0.133913,9.141830
[MO833] Paramount Iteration,9,70,0.133934,9.141883
[MO833] Paramount Iteration,1,70,0.134201,9.142062
[MO833] Paramount Iteration,0,71,0.177875,9.319591
[MO833] Paramount Iteration,12,71,0.177844,9.315777
[MO833] Paramount Iteration,4,71,0.177940,9.319615
[MO833] Paramount Iteration,8,71,0.177861,9.319637
[MO833] Paramount Iteration,14,71,0.177798,9.315804
[MO833] Paramount Iteration,1,71,0.177491,9.319600
[MO833] Paramount Iteration,2,71,0.177871,9.320030
[MO833] Paramount Iteration,13,71,0.177779,9.315791
[MO833] Paramount Iteration,5,71,0.177740,9.319626
[MO833] Paramount Iteration,10,71,0.177831,9.319629
[MO833] Paramount Iteration,9,71,0.177754,9.319650
[MO833] Paramount Iteration,6,71,0.177802,9.319591
[MO833] Paramount Iteration,15,71,0.177901,9.315788
[MO833] Paramount Iteration,3,71,0.177961,9.320023
[MO833] Paramount Iteration,11,71,0.177901,9.319619
[MO833] Paramount Iteration,7,71,0.177982,9.319583
[MO833] Paramount Iteration,2,72,0.099355,9.419393
[MO833] Paramount Iteration,12,72,0.099358,9.415192
[MO833] Paramount Iteration,4,72,0.099360,9.418996
[MO833] Paramount Iteration,0,72,0.099324,9.418987
[MO833] Paramount Iteration,3,72,0.099310,9.419386
[MO833] Paramount Iteration,13,72,0.099404,9.415202
[MO833] Paramount Iteration,5,72,0.099338,9.419007
[MO833] Paramount Iteration,10,72,0.099384,9.419031
[MO833] Paramount Iteration,8,72,0.099383,9.419075
[MO833] Paramount Iteration,6,72,0.099322,9.418971
[MO833] Paramount Iteration,14,72,0.099436,9.415252
[MO833] Paramount Iteration,1,72,0.099389,9.419000
[MO833] Paramount Iteration,11,72,0.099332,9.419022
[MO833] Paramount Iteration,9,72,0.099428,9.419089
[MO833] Paramount Iteration,7,72,0.099360,9.418966
[MO833] Paramount Iteration,15,72,0.099394,9.415244
[MO833] Paramount Iteration,0,73,0.098938,9.518016
[MO833] Paramount Iteration,2,73,0.099046,9.518446
[MO833] Paramount Iteration,12,73,0.098975,9.514226
[MO833] Paramount Iteration,4,73,0.098979,9.518035
[MO833] Paramount Iteration,10,73,0.099047,9.518090
[MO833] Paramount Iteration,8,73,0.098979,9.518106
[MO833] Paramount Iteration,6,73,0.098971,9.518003
[MO833] Paramount Iteration,14,73,0.098997,9.514262
[MO833] Paramount Iteration,1,73,0.099016,9.518028
[MO833] Paramount Iteration,3,73,0.098998,9.518433
[MO833] Paramount Iteration,13,73,0.099026,9.514237
[MO833] Paramount Iteration,5,73,0.099028,9.518044
[MO833] Paramount Iteration,11,73,0.098996,9.518082
[MO833] Paramount Iteration,9,73,0.099023,9.518121
[MO833] Paramount Iteration,7,73,0.099004,9.517993
[MO833] Paramount Iteration,15,73,0.098946,9.514253
[MO833] Paramount Iteration,12,74,0.179336,9.693624
[MO833] Paramount Iteration,4,74,0.179369,9.697464
[MO833] Paramount Iteration,8,74,0.179319,9.697479
[MO833] Paramount Iteration,0,74,0.179398,9.697443
[MO833] Paramount Iteration,2,74,0.179426,9.697877
[MO833] Paramount Iteration,13,74,0.179394,9.693640
[MO833] Paramount Iteration,5,74,0.179423,9.697478
[MO833] Paramount Iteration,10,74,0.179373,9.697476
[MO833] Paramount Iteration,9,74,0.179373,9.697503
[MO833] Paramount Iteration,6,74,0.179382,9.697443
[MO833] Paramount Iteration,14,74,0.179379,9.693653
[MO833] Paramount Iteration,1,74,0.179159,9.697456
[MO833] Paramount Iteration,3,74,0.179388,9.697869
[MO833] Paramount Iteration,11,74,0.179322,9.697466
[MO833] Paramount Iteration,7,74,0.179417,9.697436
[MO833] Paramount Iteration,15,74,0.179304,9.693640
[MO833] Paramount Iteration,3,75,0.099571,9.797494
[MO833] Paramount Iteration,12,75,0.099624,9.793305
[MO833] Paramount Iteration,4,75,0.099573,9.797096
[MO833] Paramount Iteration,6,75,0.099562,9.797064
[MO833] Paramount Iteration,14,75,0.099652,9.793314
[MO833] Paramount Iteration,0,75,0.099565,9.797090
[MO833] Paramount Iteration,2,75,0.099627,9.797511
[MO833] Paramount Iteration,13,75,0.099669,9.793316
[MO833] Paramount Iteration,5,75,0.099623,9.797108
[MO833] Paramount Iteration,10,75,0.099661,9.797157
[MO833] Paramount Iteration,8,75,0.099648,9.797183
[MO833] Paramount Iteration,7,75,0.099597,9.797056
[MO833] Paramount Iteration,15,75,0.099607,9.793305
[MO833] Paramount Iteration,1,75,0.099411,9.797103
[MO833] Paramount Iteration,11,75,0.099609,9.797145
[MO833] Paramount Iteration,9,75,0.099687,9.797197
[MO833] Paramount Iteration,0,76,0.099271,9.896446
[MO833] Paramount Iteration,3,76,0.099317,9.896866
[MO833] Paramount Iteration,4,76,0.099342,9.896503
[MO833] Paramount Iteration,1,76,0.099346,9.896462
[MO833] Paramount Iteration,2,76,0.099368,9.896885
[MO833] Paramount Iteration,12,76,0.099341,9.892708
[MO833] Paramount Iteration,5,76,0.099392,9.896514
[MO833] Paramount Iteration,10,76,0.099366,9.896531
[MO833] Paramount Iteration,8,76,0.099305,9.896543
[MO833] Paramount Iteration,6,76,0.099343,9.896464
[MO833] Paramount Iteration,14,76,0.099395,9.892720
[MO833] Paramount Iteration,13,76,0.099392,9.892718
[MO833] Paramount Iteration,11,76,0.099319,9.896521
[MO833] Paramount Iteration,9,76,0.099349,9.896557
[MO833] Paramount Iteration,7,76,0.099375,9.896456
[MO833] Paramount Iteration,15,76,0.099353,9.892714
[MO833] Paramount Iteration,0,77,0.179108,10.075586
[MO833] Paramount Iteration,12,77,0.179026,10.071793
[MO833] Paramount Iteration,4,77,0.179034,10.075596
[MO833] Paramount Iteration,6,77,0.179061,10.075582
[MO833] Paramount Iteration,1,77,0.178871,10.075597
[MO833] Paramount Iteration,2,77,0.179118,10.076009
[MO833] Paramount Iteration,13,77,0.179076,10.071803
[MO833] Paramount Iteration,5,77,0.179087,10.075608
[MO833] Paramount Iteration,10,77,0.179153,10.075694
[MO833] Paramount Iteration,8,77,0.179082,10.075678
[MO833] Paramount Iteration,7,77,0.179095,10.075575
[MO833] Paramount Iteration,14,77,0.179083,10.071820
[MO833] Paramount Iteration,3,77,0.179075,10.075996
[MO833] Paramount Iteration,11,77,0.179104,10.075686
[MO833] Paramount Iteration,9,77,0.179126,10.075692
[MO833] Paramount Iteration,15,77,0.179040,10.071812
[MO833] Paramount Iteration,0,78,0.098599,10.174269
[MO833] Paramount Iteration,2,78,0.098671,10.174686
[MO833] Paramount Iteration,4,78,0.098635,10.174303
[MO833] Paramount Iteration,6,78,0.098617,10.174252
[MO833] Paramount Iteration,1,78,0.098667,10.174279
[MO833] Paramount Iteration,3,78,0.098620,10.174670
[MO833] Paramount Iteration,12,78,0.098660,10.170512
[MO833] Paramount Iteration,5,78,0.098692,10.174315
[MO833] Paramount Iteration,10,78,0.098630,10.174338
[MO833] Paramount Iteration,8,78,0.098623,10.174357
[MO833] Paramount Iteration,7,78,0.098648,10.174243
[MO833] Paramount Iteration,14,78,0.098672,10.170504
[MO833] Paramount Iteration,13,78,0.098709,10.170522
[MO833] Paramount Iteration,11,78,0.098578,10.174330
[MO833] Paramount Iteration,9,78,0.098669,10.174372
[MO833] Paramount Iteration,15,78,0.098631,10.170498
[MO833] Paramount Iteration,0,79,0.099308,10.273635
[MO833] Paramount Iteration,2,79,0.099369,10.274061
[MO833] Paramount Iteration,12,79,0.099275,10.269848
[MO833] Paramount Iteration,4,79,0.099279,10.273648
[MO833] Paramount Iteration,6,79,0.099314,10.273621
[MO833] Paramount Iteration,1,79,0.099357,10.273644
[MO833] Paramount Iteration,3,79,0.099325,10.274048
[MO833] Paramount Iteration,13,79,0.099325,10.269857
[MO833] Paramount Iteration,5,79,0.099322,10.273653
[MO833] Paramount Iteration,10,79,0.099364,10.273715
[MO833] Paramount Iteration,8,79,0.099332,10.273742
[MO833] Paramount Iteration,7,79,0.099345,10.273612
[MO833] Paramount Iteration,14,79,0.099357,10.269876
[MO833] Paramount Iteration,11,79,0.099314,10.273706
[MO833] Paramount Iteration,9,79,0.099376,10.273757
[MO833] Paramount Iteration,15,79,0.099316,10.269869
[MO833] Paramount Iteration,0,80,0.215296,10.489015
[MO833] Paramount Iteration,3,80,0.215302,10.489400
[MO833] Paramount Iteration,12,80,0.215339,10.485248
[MO833] Paramount Iteration,4,80,0.215358,10.489069
[MO833] Paramount Iteration,11,80,0.215254,10.489018
[MO833] Paramount Iteration,8,80,0.215310,10.489107
[MO833] Paramount Iteration,7,80,0.215379,10.489020
[MO833] Paramount Iteration,15,80,0.215311,10.485238
[MO833] Paramount Iteration,2,80,0.215463,10.489531
[MO833] Paramount Iteration,13,80,0.215513,10.485382
[MO833] Paramount Iteration,5,80,0.215533,10.489204
[MO833] Paramount Iteration,10,80,0.215423,10.489147
[MO833] Paramount Iteration,14,80,0.215491,10.485383
[MO833] Paramount Iteration,9,80,0.215500,10.489266
[MO833] Paramount Iteration,6,80,0.215478,10.489170
[MO833] Paramount Iteration,1,80,0.215795,10.489451
[MO833] Paramount Iteration,0,81,0.101308,10.590405
[MO833] Paramount Iteration,4,81,0.101326,10.590450
[MO833] Paramount Iteration,6,81,0.101220,10.590418
[MO833] Paramount Iteration,1,81,0.100914,10.590415
[MO833] Paramount Iteration,2,81,0.101281,10.590825
[MO833] Paramount Iteration,12,81,0.101363,10.586656
[MO833] Paramount Iteration,5,81,0.101243,10.590461
[MO833] Paramount Iteration,10,81,0.101299,10.590476
[MO833] Paramount Iteration,8,81,0.101347,10.590505
[MO833] Paramount Iteration,7,81,0.101341,10.590410
[MO833] Paramount Iteration,14,81,0.101258,10.586655
[MO833] Paramount Iteration,3,81,0.101360,10.590811
[MO833] Paramount Iteration,13,81,0.101271,10.586667
[MO833] Paramount Iteration,11,81,0.101390,10.590467
[MO833] Paramount Iteration,9,81,0.101219,10.590520
[MO833] Paramount Iteration,15,81,0.101357,10.586647
[MO833] Paramount Iteration,0,82,0.100161,10.690644
[MO833] Paramount Iteration,3,82,0.100182,10.691043
[MO833] Paramount Iteration,12,82,0.100150,10.686869
[MO833] Paramount Iteration,4,82,0.100162,10.690676
[MO833] Paramount Iteration,8,82,0.100161,10.690726
[MO833] Paramount Iteration,6,82,0.100225,10.690654
[MO833] Paramount Iteration,1,82,0.100224,10.690655
[MO833] Paramount Iteration,2,82,0.100226,10.691058
[MO833] Paramount Iteration,13,82,0.100203,10.686880
[MO833] Paramount Iteration,5,82,0.100212,10.690686
[MO833] Paramount Iteration,10,82,0.100183,10.690708
[MO833] Paramount Iteration,9,82,0.100206,10.690740
[MO833] Paramount Iteration,7,82,0.100187,10.690650
[MO833] Paramount Iteration,14,82,0.100229,10.686897
[MO833] Paramount Iteration,11,82,0.100210,10.690700
[MO833] Paramount Iteration,15,82,0.100185,10.686889
[MO833] Paramount Iteration,12,83,0.181750,10.868690
[MO833] Paramount Iteration,4,83,0.181749,10.872486
[MO833] Paramount Iteration,8,83,0.181778,10.872559
[MO833] Paramount Iteration,14,83,0.181800,10.868711
[MO833] Paramount Iteration,2,83,0.181878,10.872945
[MO833] Paramount Iteration,13,83,0.181814,10.868702
[MO833] Paramount Iteration,5,83,0.181805,10.872501
[MO833] Paramount Iteration,10,83,0.181791,10.872550
[MO833] Paramount Iteration,9,83,0.181822,10.872573
[MO833] Paramount Iteration,6,83,0.181789,10.872503
[MO833] Paramount Iteration,15,83,0.181748,10.868697
[MO833] Paramount Iteration,3,83,0.181842,10.872937
[MO833] Paramount Iteration,11,83,0.181815,10.872541
[MO833] Paramount Iteration,7,83,0.181825,10.872495
[MO833] Paramount Iteration,0,83,0.181778,10.872501
[MO833] Paramount Iteration,1,83,0.181851,10.872515
[MO833] Paramount Iteration,0,84,0.100095,10.972627
[MO833] Paramount Iteration,1,84,0.099831,10.972635
[MO833] Paramount Iteration,2,84,0.100102,10.973054
[MO833] Paramount Iteration,12,84,0.100132,10.968884
[MO833] Paramount Iteration,4,84,0.100128,10.972681
[MO833] Paramount Iteration,10,84,0.100097,10.972702
[MO833] Paramount Iteration,8,84,0.100092,10.972709
[MO833] Paramount Iteration,6,84,0.100147,10.972662
[MO833] Paramount Iteration,3,84,0.100053,10.973043
[MO833] Paramount Iteration,13,84,0.100182,10.968896
[MO833] Paramount Iteration,5,84,0.100181,10.972695
[MO833] Paramount Iteration,11,84,0.100123,10.972693
[MO833] Paramount Iteration,9,84,0.100138,10.972723
[MO833] Paramount Iteration,7,84,0.100100,10.972658
[MO833] Paramount Iteration,14,84,0.100189,10.968912
[MO833] Paramount Iteration,15,84,0.100145,10.968905
[MO833] Paramount Iteration,0,85,0.100493,11.073185
[MO833] Paramount Iteration,4,85,0.100513,11.073223
[MO833] Paramount Iteration,1,85,0.100547,11.073198
[MO833] Paramount Iteration,3,85,0.100508,11.073601
[MO833] Paramount Iteration,12,85,0.100475,11.069424
[MO833] Paramount Iteration,5,85,0.100493,11.073234
[MO833] Paramount Iteration,10,85,0.100521,11.073272
[MO833] Paramount Iteration,8,85,0.100524,11.073289
[MO833] Paramount Iteration,6,85,0.100536,11.073212
[MO833] Paramount Iteration,14,85,0.100526,11.069450
[MO833] Paramount Iteration,2,85,0.100557,11.073618
[MO833] Paramount Iteration,13,85,0.100526,11.069435
[MO833] Paramount Iteration,11,85,0.100547,11.073265
[MO833] Paramount Iteration,9,85,0.100567,11.073303
[MO833] Paramount Iteration,7,85,0.100493,11.073205
[MO833] Paramount Iteration,15,85,0.100482,11.069441
[MO833] Paramount Iteration,0,86,0.181107,11.254392
[MO833] Paramount Iteration,12,86,0.181122,11.250608
[MO833] Paramount Iteration,4,86,0.181118,11.254407
[MO833] Paramount Iteration,6,86,0.181163,11.254387
[MO833] Paramount Iteration,14,86,0.181171,11.250633
[MO833] Paramount Iteration,1,86,0.181190,11.254403
[MO833] Paramount Iteration,2,86,0.181191,11.254816
[MO833] Paramount Iteration,13,86,0.181174,11.250618
[MO833] Paramount Iteration,5,86,0.181170,11.254419
[MO833] Paramount Iteration,10,86,0.181149,11.254473
[MO833] Paramount Iteration,8,86,0.181127,11.254474
[MO833] Paramount Iteration,7,86,0.181122,11.254382
[MO833] Paramount Iteration,15,86,0.181126,11.250624
[MO833] Paramount Iteration,3,86,0.181143,11.254799
[MO833] Paramount Iteration,11,86,0.181175,11.254464
[MO833] Paramount Iteration,9,86,0.181173,11.254489
[MO833] Paramount Iteration,0,87,0.101392,11.355864
[MO833] Paramount Iteration,1,87,0.101463,11.355875
[MO833] Paramount Iteration,2,87,0.101474,11.356296
[MO833] Paramount Iteration,12,87,0.101454,11.352122
[MO833] Paramount Iteration,4,87,0.101490,11.355921
[MO833] Paramount Iteration,10,87,0.101424,11.355946
[MO833] Paramount Iteration,8,87,0.101424,11.355954
[MO833] Paramount Iteration,6,87,0.101509,11.355910
[MO833] Paramount Iteration,14,87,0.101527,11.352172
[MO833] Paramount Iteration,3,87,0.101429,11.356282
[MO833] Paramount Iteration,13,87,0.101504,11.352131
[MO833] Paramount Iteration,5,87,0.101470,11.355935
[MO833] Paramount Iteration,11,87,0.101449,11.355937
[MO833] Paramount Iteration,9,87,0.101471,11.355970
[MO833] Paramount Iteration,7,87,0.101465,11.355901
[MO833] Paramount Iteration,15,87,0.101480,11.352159
[MO833] Paramount Iteration,0,88,0.100458,11.456394
[MO833] Paramount Iteration,3,88,0.100455,11.456789
[MO833] Paramount Iteration,12,88,0.100419,11.452604
[MO833] Paramount Iteration,4,88,0.100436,11.456419
[MO833] Paramount Iteration,8,88,0.100463,11.456479
[MO833] Paramount Iteration,6,88,0.100406,11.456376
[MO833] Paramount Iteration,14,88,0.100438,11.452621
[MO833] Paramount Iteration,1,88,0.100512,11.456404
[MO833] Paramount Iteration,2,88,0.100504,11.456807
[MO833] Paramount Iteration,13,88,0.100472,11.452615
[MO833] Paramount Iteration,5,88,0.100482,11.456427
[MO833] Paramount Iteration,10,88,0.100467,11.456462
[MO833] Paramount Iteration,9,88,0.100512,11.456494
[MO833] Paramount Iteration,7,88,0.100437,11.456366
[MO833] Paramount Iteration,15,88,0.100376,11.452613
[MO833] Paramount Iteration,11,88,0.100491,11.456453
[MO833] Paramount Iteration,0,89,0.182205,11.638677
[MO833] Paramount Iteration,12,89,0.182235,11.634897
[MO833] Paramount Iteration,4,89,0.182221,11.638698
[MO833] Paramount Iteration,6,89,0.182286,11.638675
[MO833] Paramount Iteration,14,89,0.182271,11.634903
[MO833] Paramount Iteration,1,89,0.182272,11.638687
[MO833] Paramount Iteration,2,89,0.182315,11.639128
[MO833] Paramount Iteration,13,89,0.182283,11.634906
[MO833] Paramount Iteration,5,89,0.182271,11.638709
[MO833] Paramount Iteration,10,89,0.182232,11.638741
[MO833] Paramount Iteration,8,89,0.182235,11.638769
[MO833] Paramount Iteration,7,89,0.182244,11.638669
[MO833] Paramount Iteration,15,89,0.182227,11.634894
[MO833] Paramount Iteration,3,89,0.182278,11.639121
[MO833] Paramount Iteration,11,89,0.182253,11.638729
[MO833] Paramount Iteration,9,89,0.182281,11.638785
[MO833] Paramount Iteration,0,90,0.137560,11.776309
[MO833] Paramount Iteration,3,90,0.137507,11.776681
[MO833] Paramount Iteration,12,90,0.137586,11.772542
[MO833] Paramount Iteration,11,90,0.137568,11.776324
[MO833] Paramount Iteration,8,90,0.137548,11.776374
[MO833] Paramount Iteration,7,90,0.137579,11.776302
[MO833] Paramount Iteration,2,90,0.137681,11.776818
[MO833] Paramount Iteration,13,90,0.137759,11.772676
[MO833] Paramount Iteration,4,90,0.137600,11.776384
[MO833] Paramount Iteration,10,90,0.137667,11.776457
[MO833] Paramount Iteration,9,90,0.137738,11.776533
[MO833] Paramount Iteration,6,90,0.137765,11.776453
[MO833] Paramount Iteration,15,90,0.137626,11.772572
[MO833] Paramount Iteration,5,90,0.137800,11.776527
[MO833] Paramount Iteration,14,90,0.137779,11.772692
[MO833] Paramount Iteration,1,90,0.138056,11.776753
[MO833] Paramount Iteration,0,91,0.101509,11.877886
[MO833] Paramount Iteration,3,91,0.101550,11.878283
[MO833] Paramount Iteration,12,91,0.101507,11.874096
[MO833] Paramount Iteration,4,91,0.101478,11.877917
[MO833] Paramount Iteration,8,91,0.101550,11.877971
[MO833] Paramount Iteration,6,91,0.101383,11.877866
[MO833] Paramount Iteration,14,91,0.101390,11.874112
[MO833] Paramount Iteration,1,91,0.101093,11.877897
[MO833] Paramount Iteration,2,91,0.101451,11.878300
[MO833] Paramount Iteration,13,91,0.101389,11.874107
[MO833] Paramount Iteration,5,91,0.101369,11.877929
[MO833] Paramount Iteration,10,91,0.101468,11.877957
[MO833] Paramount Iteration,9,91,0.101439,11.877985
[MO833] Paramount Iteration,7,91,0.101509,11.877858
[MO833] Paramount Iteration,15,91,0.101482,11.874104
[MO833] Paramount Iteration,11,91,0.101554,11.877945
[MO833] Paramount Iteration,0,92,0.182780,12.060746
[MO833] Paramount Iteration,2,92,0.182842,12.061148
[MO833] Paramount Iteration,12,92,0.182812,12.056969
[MO833] Paramount Iteration,4,92,0.182793,12.060769
[MO833] Paramount Iteration,10,92,0.182827,12.060795
[MO833] Paramount Iteration,8,92,0.182809,12.060835
[MO833] Paramount Iteration,6,92,0.182801,12.060725
[MO833] Paramount Iteration,14,92,0.182847,12.056972
[MO833] Paramount Iteration,1,92,0.182848,12.060757
[MO833] Paramount Iteration,3,92,0.182802,12.061139
[MO833] Paramount Iteration,13,92,0.182864,12.056980
[MO833] Paramount Iteration,5,92,0.182844,12.060782
[MO833] Paramount Iteration,11,92,0.182775,12.060787
[MO833] Paramount Iteration,9,92,0.182856,12.060851
[MO833] Paramount Iteration,7,92,0.182834,12.060717
[MO833] Paramount Iteration,15,92,0.182803,12.056963
[MO833] Paramount Iteration,0,93,0.100950,12.161777
[MO833] Paramount Iteration,2,93,0.101043,12.162197
[MO833] Paramount Iteration,12,93,0.100952,12.157983
[MO833] Paramount Iteration,4,93,0.100967,12.161799
[MO833] Paramount Iteration,8,93,0.100973,12.161865
[MO833] Paramount Iteration,6,93,0.100968,12.161755
[MO833] Paramount Iteration,14,93,0.101019,12.158004
[MO833] Paramount Iteration,1,93,0.101022,12.161788
[MO833] Paramount Iteration,3,93,0.100994,12.162184
[MO833] Paramount Iteration,13,93,0.101004,12.157994
[MO833] Paramount Iteration,5,93,0.101015,12.161809
[MO833] Paramount Iteration,10,93,0.101034,12.161843
[MO833] Paramount Iteration,9,93,0.101019,12.161881
[MO833] Paramount Iteration,7,93,0.101004,12.161748
[MO833] Paramount Iteration,15,93,0.100975,12.157996
[MO833] Paramount Iteration,11,93,0.100960,12.161835
[MO833] Paramount Iteration,0,94,0.100851,12.262712
[MO833] Paramount Iteration,12,94,0.100895,12.258938
[MO833] Paramount Iteration,4,94,0.100892,12.262749
[MO833] Paramount Iteration,6,94,0.100919,12.262729
[MO833] Paramount Iteration,1,94,0.100926,12.262726
[MO833] Paramount Iteration,2,94,0.100939,12.263142
[MO833] Paramount Iteration,13,94,0.100946,12.258948
[MO833] Paramount Iteration,5,94,0.100941,12.262758
[MO833] Paramount Iteration,10,94,0.100927,12.262783
[MO833] Paramount Iteration,8,94,0.100896,12.262815
[MO833] Paramount Iteration,7,94,0.100952,12.262723
[MO833] Paramount Iteration,14,94,0.100943,12.258959
[MO833] Paramount Iteration,3,94,0.100897,12.263133
[MO833] Paramount Iteration,11,94,0.100875,12.262774
[MO833] Paramount Iteration,9,94,0.100940,12.262829
[MO833] Paramount Iteration,15,94,0.100901,12.258951
[MO833] Paramount Iteration,0,95,0.182633,12.445435
[MO833] Paramount Iteration,2,95,0.182709,12.445857
[MO833] Paramount Iteration,12,95,0.182667,12.441663
[MO833] Paramount Iteration,4,95,0.182659,12.445468
[MO833] Paramount Iteration,6,95,0.182648,12.445432
[MO833] Paramount Iteration,1,95,0.182710,12.445449
[MO833] Paramount Iteration,3,95,0.182665,12.445841
[MO833] Paramount Iteration,13,95,0.182718,12.441674
[MO833] Paramount Iteration,5,95,0.182712,12.445480
[MO833] Paramount Iteration,10,95,0.182716,12.445512
[MO833] Paramount Iteration,8,95,0.182671,12.445538
[MO833] Paramount Iteration,7,95,0.182678,12.445421
[MO833] Paramount Iteration,14,95,0.182657,12.441678
[MO833] Paramount Iteration,11,95,0.182665,12.445504
[MO833] Paramount Iteration,9,95,0.182714,12.445553
[MO833] Paramount Iteration,15,95,0.182693,12.441669
[MO833] Paramount Iteration,0,96,0.107225,12.552746
[MO833] Paramount Iteration,2,96,0.107311,12.553174
[MO833] Paramount Iteration,12,96,0.107256,12.548979
[MO833] Paramount Iteration,4,96,0.107296,12.552828
[MO833] Paramount Iteration,10,96,0.107260,12.552818
[MO833] Paramount Iteration,8,96,0.107259,12.552854
[MO833] Paramount Iteration,6,96,0.107254,12.552744
[MO833] Paramount Iteration,14,96,0.107294,12.548985
[MO833] Paramount Iteration,1,96,0.107299,12.552760
[MO833] Paramount Iteration,3,96,0.107271,12.553165
[MO833] Paramount Iteration,13,96,0.107313,12.548995
[MO833] Paramount Iteration,5,96,0.107345,12.552837
[MO833] Paramount Iteration,11,96,0.107284,12.552810
[MO833] Paramount Iteration,9,96,0.107304,12.552868
[MO833] Paramount Iteration,7,96,0.107286,12.552737
[MO833] Paramount Iteration,15,96,0.107249,12.548976
[MO833] Paramount Iteration,12,97,0.101698,12.650735
[MO833] Paramount Iteration,4,97,0.101648,12.654549
[MO833] Paramount Iteration,8,97,0.101707,12.654617
[MO833] Paramount Iteration,6,97,0.101703,12.654504
[MO833] Paramount Iteration,14,97,0.101754,12.650751
[MO833] Paramount Iteration,0,97,0.101708,12.654523
[MO833] Paramount Iteration,3,97,0.101701,12.654917
[MO833] Paramount Iteration,13,97,0.101744,12.650746
[MO833] Paramount Iteration,5,97,0.101694,12.654556
[MO833] Paramount Iteration,10,97,0.101773,12.654605
[MO833] Paramount Iteration,9,97,0.101752,12.654631
[MO833] Paramount Iteration,7,97,0.101733,12.654494
[MO833] Paramount Iteration,15,97,0.101710,12.650743
[MO833] Paramount Iteration,1,97,0.101762,12.654534
[MO833] Paramount Iteration,2,97,0.101753,12.654933
[MO833] Paramount Iteration,11,97,0.101720,12.654596
[MO833] Paramount Iteration,0,98,0.183640,12.838243
[MO833] Paramount Iteration,2,98,0.183732,12.838671
[MO833] Paramount Iteration,12,98,0.183672,12.834467
[MO833] Paramount Iteration,4,98,0.183670,12.838275
[MO833] Paramount Iteration,10,98,0.183712,12.838329
[MO833] Paramount Iteration,8,98,0.183680,12.838351
[MO833] Paramount Iteration,6,98,0.183687,12.838245
[MO833] Paramount Iteration,14,98,0.183672,12.834483
[MO833] Paramount Iteration,1,98,0.183713,12.838256
[MO833] Paramount Iteration,3,98,0.183687,12.838657
[MO833] Paramount Iteration,13,98,0.183723,12.834477
[MO833] Paramount Iteration,5,98,0.183717,12.838284
[MO833] Paramount Iteration,11,98,0.183661,12.838320
[MO833] Paramount Iteration,9,98,0.183722,12.838364
[MO833] Paramount Iteration,7,98,0.183722,12.838241
[MO833] Paramount Iteration,15,98,0.183707,12.834474
[MO833] Paramount Iteration,0,99,0.101076,12.939407
[MO833] Paramount Iteration,2,99,0.101139,12.939816
[MO833] Paramount Iteration,12,99,0.101095,12.935620
[MO833] Paramount Iteration,4,99,0.101095,12.939432
[MO833] Paramount Iteration,10,99,0.101120,12.939462
[MO833] Paramount Iteration,8,99,0.101099,12.939505
[MO833] Paramount Iteration,6,99,0.101088,12.939390
[MO833] Paramount Iteration,14,99,0.101134,12.935632
[MO833] Paramount Iteration,1,99,0.101145,12.939414
[MO833] Paramount Iteration,3,99,0.101096,12.939808
[MO833] Paramount Iteration,13,99,0.101145,12.935630
[MO833] Paramount Iteration,5,99,0.101145,12.939442
[MO833] Paramount Iteration,11,99,0.101067,12.939453
[MO833] Paramount Iteration,9,99,0.101143,12.939519
[MO833] Paramount Iteration,7,99,0.101121,12.939384
[MO833] Paramount Iteration,15,99,0.101090,12.935623
     100    1727.5561    1930.0116     3712.096    3597.8437         3844          248   -156.58211 
[MO833] Paramount Iteration,1,100,0.156540,13.095967
[MO833] Paramount Iteration,12,100,0.156531,13.092213
[MO833] Paramount Iteration,4,100,0.156524,13.096016
[MO833] Paramount Iteration,8,100,0.156501,13.096060
[MO833] Paramount Iteration,6,100,0.156527,13.095976
[MO833] Paramount Iteration,14,100,0.156579,13.092224
[MO833] Paramount Iteration,0,100,0.156550,13.096044
[MO833] Paramount Iteration,13,100,0.156573,13.092213
[MO833] Paramount Iteration,5,100,0.156561,13.096014
[MO833] Paramount Iteration,9,100,0.156534,13.096064
[MO833] Paramount Iteration,7,100,0.156572,13.095979
[MO833] Paramount Iteration,15,100,0.156541,13.092224
[MO833] Paramount Iteration,2,100,0.156646,13.096471
[MO833] Paramount Iteration,10,100,0.156622,13.096096
[MO833] Paramount Iteration,3,100,0.156609,13.096472
[MO833] Paramount Iteration,11,100,0.156576,13.096093
Loop time of 12.7091 on 16 procs for 100 steps with 24000 atoms

Performance: 1.360 ns/day, 17.652 hours/ns, 7.868 timesteps/s
76.4% CPU use with 16 MPI tasks x 1 OpenMP threads

MPI task timing breakdown:
Section |  min time  |  avg time  |  max time  |%varavg| %total
---------------------------------------------------------------
Pair    | 9.7513e-05 | 3.6997     | 8.2429     | 194.2 | 29.11
Bond    | 9.0361e-05 | 0.00016464 | 0.00022388 |   0.0 |  0.00
Kspace  | 1.5129     | 6.009      | 9.6806     | 150.9 | 47.28
Neigh   | 2.4014     | 2.4301     | 2.4523     |   1.1 | 19.12
Comm    | 0.054885   | 0.16823    | 0.29878    |  26.7 |  1.32
Output  | 0.014951   | 0.01695    | 0.01836    |   0.7 |  0.13
Modify  | 0.20763    | 0.34793    | 0.48171    |  21.6 |  2.74
Other   |            | 0.03711    |            |       |  0.29

Nlocal:    1500 ave 3011 max 0 min
Histogram: 8 0 0 0 0 0 0 0 0 8
Nghost:    7445.69 ave 14909 max 0 min
Histogram: 8 0 0 0 0 0 0 0 0 8
Neighs:    1.02051e+06 ave 2.25439e+06 max 0 min
Histogram: 8 0 0 0 0 0 0 0 4 4

Total # of neighbors = 16328129
Ave neighs/atom = 680.339
Ave special neighs/atom = 2
Neighbor list builds = 31
Dangerous builds = 0
Total wall time: 0:00:13
[MO833] Beta,2,0.042304
[MO833] PI avg,2,0.127090,100
[MO833] Beta,3,0.042300
[MO833] Beta,5,0.042285
[MO833] PI avg,5,0.127089,100
[MO833] Beta,10,0.042276
[MO833] PI avg,10,0.127090,100
[MO833] PI avg,3,0.127090,100
[MO833] Beta,1,0.042291
[MO833] Beta,7,0.042282
[MO833] PI avg,7,0.127089,100
[MO833] PI avg,1,0.127089,100
[MO833] Beta,0,0.042292
[MO833] Beta,4,0.042293
[MO833] Beta,11,0.042283
[MO833] PI avg,4,0.127090,100
[MO833] PI avg,11,0.127091,100
[MO833] Beta,14,0.041994
[MO833] Beta,15,0.041998
[MO833] PI avg,15,0.127089,100
[MO833] Beta,8,0.042299
[MO833] PI avg,14,0.127089,100
[MO833] Beta,12,0.042000
[MO833] PI avg,8,0.127090,100
[MO833] PI avg,12,0.127089,100
[MO833] PI avg,0,0.127089,100
[MO833] Total time,13.246424
[MO833] Beta,6,0.042304
[MO833] PI avg,6,0.127090,100
[MO833] Beta,9,0.042316
[MO833] PI avg,9,0.127089,100
[MO833] Beta,13,0.042019
[MO833] PI avg,13,0.127089,100
