LAMMPS (3 Mar 2020)
OMP_NUM_THREADS environment is not set. Defaulting to 1 thread. (src/comm.cpp:94)
  using 1 OpenMP thread(s) per MPI task
Reading data file ...
  orthogonal box = (0 0 0) to (3.1 3.1 3.1)
  1 by 2 by 2 MPI processor grid
  reading atoms ...
  3 atoms
  scanning bonds ...
  2 = max bonds/atom
  scanning angles ...
  1 = max angles/atom
  reading bonds ...
  2 bonds
  reading angles ...
  1 angles
Finding 1-2 1-3 1-4 neighbors ...
  special bond factors lj:   0          0          0         
  special bond factors coul: 0          0          0         
  2 = max # of 1-2 neighbors
  1 = max # of 1-3 neighbors
  1 = max # of 1-4 neighbors
  2 = max # of special neighbors
  special bonds CPU = 0.00319052 secs
  read_data CPU = 0.0190017 secs
Replicating atoms ...
  orthogonal box = (0 0 0) to (62 62 62)
  1 by 2 by 2 MPI processor grid
  24000 atoms
  16000 bonds
  8000 angles
Finding 1-2 1-3 1-4 neighbors ...
  special bond factors lj:   0          0          0         
  special bond factors coul: 0          0          0         
  2 = max # of 1-2 neighbors
  1 = max # of 1-3 neighbors
  1 = max # of 1-4 neighbors
  2 = max # of special neighbors
  special bonds CPU = 0.00404811 secs
  replicate CPU = 0.0090425 secs
Displacing atoms ...
Changing box ...
  orthogonal box = (-31 0 0) to (31 62 62)
Changing box ...
  orthogonal box = (-31 -31 0) to (31 31 62)
Changing box ...
  orthogonal box = (-31 -31 -31) to (31 31 31)
Changing box ...
  orthogonal box = (-31 -31 -124) to (31 31 124)
16000 atoms in group hydrogen
8000 atoms in group oxygen
Finding SHAKE clusters ...
  0 = # of size 2 clusters
  0 = # of size 3 clusters
  0 = # of size 4 clusters
  8000 = # of frozen angles
  find clusters CPU = 0.00413299 secs
PPPM initialization ...
  extracting TIP4P info from pair style
  using 12-bit tables for long-range coulomb (src/kspace.cpp:332)
  G vector (1/distance) = 0.230756
  grid = 45 45 120
  stencil order = 5
  estimated absolute RMS force accuracy = 0.00315988
  estimated relative force accuracy = 9.51587e-06
  using double precision KISS FFT
  3d grid and FFT values/proc = 101036 62100
Neighbor list info ...
  update every 1 steps, delay 0 steps, check yes
  max neighbors/atom: 2000, page size: 100000
  master list distance cutoff = 15.3092
  ghost atom cutoff = 15.3092
  binsize = 7.6546, bins = 9 9 33
  1 neighbor lists, perpetual/occasional/extra = 1 0 0
  (1) pair lj/cut/tip4p/long, perpetual
      attributes: half, newton on
      pair build: half/bin/newton
      stencil: half/bin/3d/newton
      bin: standard
Setting up Verlet run ...
  Unit style    : real
  Current step  : 0
  Time step     : 2
Per MPI rank memory allocation (min/avg/max) = 44.11 | 45.7 | 47.29 Mbytes
Step Temp f_TAve Press f_PAve v_xyArea Lz f_st 
       0    450.00938            0    13733.809            0         3844          248            0 
[MO833] Paramount Iteration,0,1,0.187462,0.825842
[MO833] Paramount Iteration,1,1,0.187465,0.825844
[MO833] Paramount Iteration,2,1,0.187557,0.826031
[MO833] Paramount Iteration,3,1,0.187557,0.826029
[MO833] Paramount Iteration,0,2,0.189627,1.015569
[MO833] Paramount Iteration,2,2,0.189530,1.015582
[MO833] Paramount Iteration,1,2,0.189706,1.015568
[MO833] Paramount Iteration,3,2,0.189485,1.015583
[MO833] Paramount Iteration,0,3,0.189398,1.205115
[MO833] Paramount Iteration,2,3,0.189538,1.205141
[MO833] Paramount Iteration,1,3,0.189522,1.205113
[MO833] Paramount Iteration,3,3,0.189493,1.205141
[MO833] Paramount Iteration,0,4,0.188650,1.393901
[MO833] Paramount Iteration,2,4,0.188769,1.393932
[MO833] Paramount Iteration,1,4,0.188768,1.393900
[MO833] Paramount Iteration,3,4,0.188718,1.393932
[MO833] Paramount Iteration,0,5,0.188912,1.582955
[MO833] Paramount Iteration,1,5,0.189034,1.582955
[MO833] Paramount Iteration,2,5,0.189063,1.583014
[MO833] Paramount Iteration,3,5,0.189017,1.583012
[MO833] Paramount Iteration,0,6,0.189192,1.772167
[MO833] Paramount Iteration,2,6,0.189152,1.772188
[MO833] Paramount Iteration,1,6,0.189147,1.772165
[MO833] Paramount Iteration,3,6,0.189109,1.772189
[MO833] Paramount Iteration,0,7,0.340503,2.112690
[MO833] Paramount Iteration,1,7,0.340466,2.112689
[MO833] Paramount Iteration,2,7,0.340534,2.112744
[MO833] Paramount Iteration,3,7,0.340488,2.112742
[MO833] Paramount Iteration,0,8,0.198751,2.311461
[MO833] Paramount Iteration,2,8,0.198721,2.311485
[MO833] Paramount Iteration,1,8,0.198708,2.311461
[MO833] Paramount Iteration,3,8,0.198669,2.311485
[MO833] Paramount Iteration,0,9,0.197967,2.509567
[MO833] Paramount Iteration,2,9,0.198093,2.509598
[MO833] Paramount Iteration,1,9,0.198084,2.509566
[MO833] Paramount Iteration,3,9,0.198049,2.509598
[MO833] Paramount Iteration,0,10,0.197637,2.707345
[MO833] Paramount Iteration,2,10,0.197772,2.707387
[MO833] Paramount Iteration,1,10,0.197758,2.707344
[MO833] Paramount Iteration,3,10,0.197727,2.707386
[MO833] Paramount Iteration,0,11,0.348028,3.055396
[MO833] Paramount Iteration,2,11,0.348018,3.055425
[MO833] Paramount Iteration,1,11,0.347981,3.055395
[MO833] Paramount Iteration,3,11,0.347975,3.055425
[MO833] Paramount Iteration,0,12,0.200232,3.255653
[MO833] Paramount Iteration,2,12,0.200269,3.255714
[MO833] Paramount Iteration,1,12,0.200193,3.255653
[MO833] Paramount Iteration,3,12,0.200219,3.255712
[MO833] Paramount Iteration,0,13,0.199064,3.454752
[MO833] Paramount Iteration,1,13,0.199021,3.454751
[MO833] Paramount Iteration,2,13,0.199050,3.454788
[MO833] Paramount Iteration,3,13,0.199006,3.454788
[MO833] Paramount Iteration,0,14,0.350038,3.804813
[MO833] Paramount Iteration,2,14,0.350054,3.804861
[MO833] Paramount Iteration,1,14,0.349995,3.804812
[MO833] Paramount Iteration,3,14,0.350011,3.804860
[MO833] Paramount Iteration,0,15,0.200736,4.005569
[MO833] Paramount Iteration,2,15,0.200727,4.005605
[MO833] Paramount Iteration,1,15,0.200692,4.005568
[MO833] Paramount Iteration,3,15,0.200682,4.005605
[MO833] Paramount Iteration,0,16,0.201317,4.207031
[MO833] Paramount Iteration,2,16,0.201452,4.207077
[MO833] Paramount Iteration,1,16,0.201439,4.207030
[MO833] Paramount Iteration,3,16,0.201406,4.207075
[MO833] Paramount Iteration,0,17,0.353986,4.561040
[MO833] Paramount Iteration,1,17,0.353942,4.561039
[MO833] Paramount Iteration,2,17,0.354034,4.561134
[MO833] Paramount Iteration,3,17,0.353987,4.561132
[MO833] Paramount Iteration,0,18,0.204331,4.765391
[MO833] Paramount Iteration,1,18,0.204286,4.765390
[MO833] Paramount Iteration,2,18,0.204300,4.765455
[MO833] Paramount Iteration,3,18,0.204250,4.765453
[MO833] Paramount Iteration,0,19,0.203505,4.969040
[MO833] Paramount Iteration,2,19,0.203605,4.969083
[MO833] Paramount Iteration,1,19,0.203628,4.969039
[MO833] Paramount Iteration,3,19,0.203558,4.969081
[MO833] Paramount Iteration,0,20,0.354865,5.324038
[MO833] Paramount Iteration,2,20,0.354974,5.324073
[MO833] Paramount Iteration,1,20,0.354979,5.324037
[MO833] Paramount Iteration,3,20,0.354927,5.324073
[MO833] Paramount Iteration,0,21,0.203442,5.527503
[MO833] Paramount Iteration,1,21,0.203397,5.527502
[MO833] Paramount Iteration,2,21,0.203544,5.527637
[MO833] Paramount Iteration,3,21,0.203498,5.527635
[MO833] Paramount Iteration,0,22,0.202479,5.730003
[MO833] Paramount Iteration,1,22,0.202433,5.730002
[MO833] Paramount Iteration,2,22,0.202447,5.730106
[MO833] Paramount Iteration,3,22,0.202401,5.730104
[MO833] Paramount Iteration,0,23,0.353259,6.083365
[MO833] Paramount Iteration,2,23,0.353261,6.083391
[MO833] Paramount Iteration,1,23,0.353341,6.083364
[MO833] Paramount Iteration,3,23,0.353206,6.083389
[MO833] Paramount Iteration,0,24,0.204641,6.288146
[MO833] Paramount Iteration,2,24,0.204766,6.288175
[MO833] Paramount Iteration,1,24,0.204759,6.288145
[MO833] Paramount Iteration,3,24,0.204723,6.288175
[MO833] Paramount Iteration,0,25,0.203284,6.491453
[MO833] Paramount Iteration,2,25,0.203306,6.491502
[MO833] Paramount Iteration,1,25,0.203241,6.491452
[MO833] Paramount Iteration,3,25,0.203261,6.491500
[MO833] Paramount Iteration,0,26,0.353316,6.844790
[MO833] Paramount Iteration,2,26,0.353293,6.844815
[MO833] Paramount Iteration,1,26,0.353271,6.844790
[MO833] Paramount Iteration,3,26,0.353249,6.844815
[MO833] Paramount Iteration,0,27,0.201661,7.046471
[MO833] Paramount Iteration,2,27,0.201655,7.046497
[MO833] Paramount Iteration,1,27,0.201613,7.046470
[MO833] Paramount Iteration,3,27,0.201611,7.046498
[MO833] Paramount Iteration,0,28,0.202309,7.248936
[MO833] Paramount Iteration,1,28,0.202445,7.248936
[MO833] Paramount Iteration,2,28,0.202480,7.248997
[MO833] Paramount Iteration,3,28,0.202426,7.248995
[MO833] Paramount Iteration,0,29,0.351647,7.600604
[MO833] Paramount Iteration,2,29,0.351615,7.600631
[MO833] Paramount Iteration,1,29,0.351604,7.600603
[MO833] Paramount Iteration,3,29,0.351570,7.600631
[MO833] Paramount Iteration,2,30,0.202529,7.803179
[MO833] Paramount Iteration,1,30,0.202549,7.803210
[MO833] Paramount Iteration,3,30,0.202486,7.803180
[MO833] Paramount Iteration,0,30,0.202673,7.803297
[MO833] Paramount Iteration,0,31,0.202832,8.006175
[MO833] Paramount Iteration,2,31,0.203025,8.006228
[MO833] Paramount Iteration,1,31,0.202917,8.006174
[MO833] Paramount Iteration,3,31,0.202976,8.006226
[MO833] Paramount Iteration,0,32,0.353545,8.359872
[MO833] Paramount Iteration,2,32,0.353655,8.359900
[MO833] Paramount Iteration,1,32,0.353673,8.359872
[MO833] Paramount Iteration,3,32,0.353604,8.359900
[MO833] Paramount Iteration,0,33,0.202751,8.562647
[MO833] Paramount Iteration,2,33,0.202751,8.562676
[MO833] Paramount Iteration,1,33,0.202706,8.562646
[MO833] Paramount Iteration,3,33,0.202700,8.562676
[MO833] Paramount Iteration,0,34,0.203135,8.765804
[MO833] Paramount Iteration,2,34,0.203148,8.765847
[MO833] Paramount Iteration,1,34,0.203091,8.765803
[MO833] Paramount Iteration,3,34,0.203102,8.765845
[MO833] Paramount Iteration,0,35,0.354748,9.120575
[MO833] Paramount Iteration,2,35,0.354728,9.120595
[MO833] Paramount Iteration,1,35,0.354701,9.120574
[MO833] Paramount Iteration,3,35,0.354675,9.120595
[MO833] Paramount Iteration,0,36,0.203373,9.324094
[MO833] Paramount Iteration,2,36,0.203522,9.324141
[MO833] Paramount Iteration,1,36,0.203498,9.324093
[MO833] Paramount Iteration,3,36,0.203470,9.324139
[MO833] Paramount Iteration,0,37,0.202602,9.526836
[MO833] Paramount Iteration,2,37,0.202693,9.526852
[MO833] Paramount Iteration,1,37,0.202721,9.526836
[MO833] Paramount Iteration,3,37,0.202647,9.526853
[MO833] Paramount Iteration,0,38,0.352695,9.879674
[MO833] Paramount Iteration,1,38,0.352816,9.879673
[MO833] Paramount Iteration,2,38,0.352855,9.879725
[MO833] Paramount Iteration,3,38,0.352804,9.879724
[MO833] Paramount Iteration,0,39,0.201914,10.081610
[MO833] Paramount Iteration,2,39,0.201897,10.081641
[MO833] Paramount Iteration,1,39,0.201869,10.081609
[MO833] Paramount Iteration,3,39,0.201853,10.081641
[MO833] Paramount Iteration,0,40,0.201771,10.283526
[MO833] Paramount Iteration,2,40,0.201889,10.283551
[MO833] Paramount Iteration,1,40,0.201891,10.283524
[MO833] Paramount Iteration,3,40,0.201844,10.283551
[MO833] Paramount Iteration,0,41,0.352380,10.636052
[MO833] Paramount Iteration,2,41,0.352496,10.636103
[MO833] Paramount Iteration,1,41,0.352504,10.636051
[MO833] Paramount Iteration,3,41,0.352530,10.636101
[MO833] Paramount Iteration,0,42,0.201573,10.837764
[MO833] Paramount Iteration,2,42,0.201637,10.837796
[MO833] Paramount Iteration,1,42,0.201691,10.837764
[MO833] Paramount Iteration,3,42,0.201674,10.837797
[MO833] Paramount Iteration,0,43,0.203130,11.040916
[MO833] Paramount Iteration,1,43,0.203087,11.040915
[MO833] Paramount Iteration,2,43,0.203172,11.040989
[MO833] Paramount Iteration,3,43,0.203118,11.040987
[MO833] Paramount Iteration,0,44,0.352732,11.393755
[MO833] Paramount Iteration,1,44,0.352817,11.393754
[MO833] Paramount Iteration,2,44,0.352795,11.393838
[MO833] Paramount Iteration,3,44,0.352828,11.393835
[MO833] Paramount Iteration,0,45,0.201735,11.595644
[MO833] Paramount Iteration,2,45,0.201814,11.595674
[MO833] Paramount Iteration,1,45,0.201868,11.595643
[MO833] Paramount Iteration,3,45,0.201768,11.595675
[MO833] Paramount Iteration,0,46,0.202172,11.797850
[MO833] Paramount Iteration,2,46,0.202182,11.797877
[MO833] Paramount Iteration,1,46,0.202134,11.797849
[MO833] Paramount Iteration,3,46,0.202139,11.797878
[MO833] Paramount Iteration,0,47,0.352916,12.150787
[MO833] Paramount Iteration,2,47,0.352914,12.150811
[MO833] Paramount Iteration,1,47,0.352879,12.150786
[MO833] Paramount Iteration,3,47,0.352870,12.150811
[MO833] Paramount Iteration,0,48,0.202402,12.353212
[MO833] Paramount Iteration,2,48,0.202403,12.353236
[MO833] Paramount Iteration,1,48,0.202365,12.353211
[MO833] Paramount Iteration,3,48,0.202355,12.353237
[MO833] Paramount Iteration,0,49,0.203353,12.556708
[MO833] Paramount Iteration,2,49,0.203484,12.556744
[MO833] Paramount Iteration,1,49,0.203471,12.556707
[MO833] Paramount Iteration,3,49,0.203438,12.556744
[MO833] Paramount Iteration,1,50,0.366958,12.923685
[MO833] Paramount Iteration,2,50,0.367328,12.924098
[MO833] Paramount Iteration,3,50,0.367979,12.924801
[MO833] Paramount Iteration,0,50,0.368255,12.925107
[MO833] Paramount Iteration,0,51,0.203495,13.128648
[MO833] Paramount Iteration,2,51,0.204531,13.128679
[MO833] Paramount Iteration,1,51,0.204894,13.128648
[MO833] Paramount Iteration,3,51,0.203819,13.128680
[MO833] Paramount Iteration,0,52,0.202697,13.331368
[MO833] Paramount Iteration,2,52,0.202686,13.331385
[MO833] Paramount Iteration,1,52,0.202652,13.331367
[MO833] Paramount Iteration,3,52,0.202642,13.331385
[MO833] Paramount Iteration,0,53,0.353305,13.684812
[MO833] Paramount Iteration,2,53,0.353430,13.684869
[MO833] Paramount Iteration,1,53,0.353421,13.684811
[MO833] Paramount Iteration,3,53,0.353496,13.684900
[MO833] Paramount Iteration,0,54,0.202658,13.887608
[MO833] Paramount Iteration,1,54,0.202775,13.887607
[MO833] Paramount Iteration,2,54,0.202758,13.887680
[MO833] Paramount Iteration,3,54,0.202772,13.887678
[MO833] Paramount Iteration,0,55,0.201771,14.089527
[MO833] Paramount Iteration,1,55,0.201896,14.089526
[MO833] Paramount Iteration,2,55,0.201896,14.089634
[MO833] Paramount Iteration,3,55,0.201930,14.089632
[MO833] Paramount Iteration,0,56,0.352524,14.442075
[MO833] Paramount Iteration,2,56,0.352412,14.442099
[MO833] Paramount Iteration,1,56,0.352481,14.442074
[MO833] Paramount Iteration,3,56,0.352450,14.442100
[MO833] Paramount Iteration,0,57,0.202415,14.644628
[MO833] Paramount Iteration,2,57,0.202533,14.644653
[MO833] Paramount Iteration,1,57,0.202530,14.644627
[MO833] Paramount Iteration,3,57,0.202489,14.644653
[MO833] Paramount Iteration,0,58,0.202096,14.846745
[MO833] Paramount Iteration,2,58,0.202093,14.846771
[MO833] Paramount Iteration,1,58,0.202055,14.846744
[MO833] Paramount Iteration,3,58,0.202046,14.846772
[MO833] Paramount Iteration,0,59,0.352502,15.199389
[MO833] Paramount Iteration,2,59,0.352628,15.199420
[MO833] Paramount Iteration,1,59,0.352621,15.199388
[MO833] Paramount Iteration,3,59,0.352585,15.199420
[MO833] Paramount Iteration,0,60,0.300710,15.500240
[MO833] Paramount Iteration,1,60,0.300880,15.500291
[MO833] Paramount Iteration,3,60,0.300932,15.500372
[MO833] Paramount Iteration,2,60,0.300960,15.500436
[MO833] Paramount Iteration,0,61,0.203264,15.703629
[MO833] Paramount Iteration,1,61,0.203332,15.703629
[MO833] Paramount Iteration,2,61,0.203212,15.703675
[MO833] Paramount Iteration,3,61,0.203236,15.703673
[MO833] Paramount Iteration,0,62,0.353111,16.056764
[MO833] Paramount Iteration,1,62,0.353062,16.056762
[MO833] Paramount Iteration,2,62,0.353148,16.056842
[MO833] Paramount Iteration,3,62,0.353090,16.056824
[MO833] Paramount Iteration,0,63,0.201348,16.258258
[MO833] Paramount Iteration,2,63,0.201422,16.258283
[MO833] Paramount Iteration,1,63,0.201472,16.258256
[MO833] Paramount Iteration,3,63,0.201378,16.258284
[MO833] Paramount Iteration,0,64,0.203685,16.461966
[MO833] Paramount Iteration,2,64,0.203696,16.461999
[MO833] Paramount Iteration,1,64,0.203641,16.461965
[MO833] Paramount Iteration,3,64,0.203649,16.461999
[MO833] Paramount Iteration,0,65,0.355016,16.817003
[MO833] Paramount Iteration,2,65,0.355015,16.817035
[MO833] Paramount Iteration,1,65,0.354971,16.817002
[MO833] Paramount Iteration,3,65,0.354971,16.817035
[MO833] Paramount Iteration,0,66,0.202132,17.019156
[MO833] Paramount Iteration,1,66,0.202088,17.019155
[MO833] Paramount Iteration,2,66,0.202162,17.019250
[MO833] Paramount Iteration,3,66,0.202195,17.019248
[MO833] Paramount Iteration,0,67,0.202034,17.221212
[MO833] Paramount Iteration,2,67,0.201967,17.221238
[MO833] Paramount Iteration,1,67,0.201991,17.221211
[MO833] Paramount Iteration,3,67,0.201922,17.221238
[MO833] Paramount Iteration,0,68,0.354327,17.575560
[MO833] Paramount Iteration,2,68,0.354323,17.575580
[MO833] Paramount Iteration,1,68,0.354291,17.575559
[MO833] Paramount Iteration,3,68,0.354272,17.575580
[MO833] Paramount Iteration,0,69,0.202664,17.778246
[MO833] Paramount Iteration,2,69,0.202637,17.778272
[MO833] Paramount Iteration,1,69,0.202628,17.778245
[MO833] Paramount Iteration,3,69,0.202672,17.778272
[MO833] Paramount Iteration,0,70,0.276635,18.054902
[MO833] Paramount Iteration,1,70,0.276597,18.054908
[MO833] Paramount Iteration,2,70,0.276728,18.055057
[MO833] Paramount Iteration,3,70,0.276763,18.055055
[MO833] Paramount Iteration,0,71,0.352131,18.407144
[MO833] Paramount Iteration,1,71,0.352220,18.407143
[MO833] Paramount Iteration,2,71,0.352127,18.407202
[MO833] Paramount Iteration,3,71,0.352072,18.407200
[MO833] Paramount Iteration,0,72,0.203412,18.610701
[MO833] Paramount Iteration,2,72,0.203503,18.610727
[MO833] Paramount Iteration,1,72,0.203535,18.610701
[MO833] Paramount Iteration,3,72,0.203459,18.610727
[MO833] Paramount Iteration,0,73,0.202194,18.812918
[MO833] Paramount Iteration,1,73,0.202155,18.812917
[MO833] Paramount Iteration,2,73,0.202227,18.812975
[MO833] Paramount Iteration,3,73,0.202173,18.812973
[MO833] Paramount Iteration,0,74,0.353656,19.166717
[MO833] Paramount Iteration,1,74,0.353777,19.166716
[MO833] Paramount Iteration,2,74,0.353802,19.166796
[MO833] Paramount Iteration,3,74,0.353756,19.166794
[MO833] Paramount Iteration,0,75,0.203117,19.369980
[MO833] Paramount Iteration,1,75,0.203242,19.369979
[MO833] Paramount Iteration,2,75,0.203221,19.370037
[MO833] Paramount Iteration,3,75,0.203175,19.370035
[MO833] Paramount Iteration,2,76,0.204529,19.574587
[MO833] Paramount Iteration,1,76,0.204583,19.574584
[MO833] Paramount Iteration,3,76,0.204484,19.574588
[MO833] Paramount Iteration,0,76,0.204461,19.574585
[MO833] Paramount Iteration,0,77,0.355574,19.930279
[MO833] Paramount Iteration,2,77,0.355635,19.930273
[MO833] Paramount Iteration,1,77,0.355637,19.930278
[MO833] Paramount Iteration,3,77,0.355668,19.930273
[MO833] Paramount Iteration,0,78,0.202574,20.132988
[MO833] Paramount Iteration,2,78,0.202681,20.133012
[MO833] Paramount Iteration,1,78,0.202686,20.132988
[MO833] Paramount Iteration,3,78,0.202716,20.133011
[MO833] Paramount Iteration,0,79,0.203097,20.336108
[MO833] Paramount Iteration,1,79,0.203058,20.336107
[MO833] Paramount Iteration,2,79,0.203160,20.336226
[MO833] Paramount Iteration,3,79,0.203194,20.336224
[MO833] Paramount Iteration,0,80,0.430402,20.766531
[MO833] Paramount Iteration,1,80,0.430356,20.766530
[MO833] Paramount Iteration,2,80,0.430445,20.766692
[MO833] Paramount Iteration,3,80,0.430396,20.766690
[MO833] Paramount Iteration,0,81,0.202826,20.969462
[MO833] Paramount Iteration,2,81,0.202735,20.969484
[MO833] Paramount Iteration,1,81,0.202911,20.969461
[MO833] Paramount Iteration,3,81,0.202775,20.969483
[MO833] Paramount Iteration,0,82,0.204197,21.173803
[MO833] Paramount Iteration,1,82,0.204320,21.173802
[MO833] Paramount Iteration,2,82,0.204366,21.173871
[MO833] Paramount Iteration,3,82,0.204317,21.173869
[MO833] Paramount Iteration,0,83,0.356679,21.530503
[MO833] Paramount Iteration,2,83,0.356618,21.530542
[MO833] Paramount Iteration,1,83,0.356636,21.530502
[MO833] Paramount Iteration,3,83,0.356652,21.530540
[MO833] Paramount Iteration,0,84,0.209651,21.740295
[MO833] Paramount Iteration,2,84,0.209767,21.740331
[MO833] Paramount Iteration,1,84,0.209770,21.740294
[MO833] Paramount Iteration,3,84,0.209722,21.740330
[MO833] Paramount Iteration,0,85,0.204743,21.945059
[MO833] Paramount Iteration,2,85,0.204697,21.945084
[MO833] Paramount Iteration,1,85,0.204688,21.945058
[MO833] Paramount Iteration,3,85,0.204733,21.945084
[MO833] Paramount Iteration,0,86,0.357796,22.302876
[MO833] Paramount Iteration,1,86,0.357757,22.302875
[MO833] Paramount Iteration,2,86,0.357863,22.302999
[MO833] Paramount Iteration,3,86,0.357922,22.303022
[MO833] Paramount Iteration,0,87,0.204445,22.507435
[MO833] Paramount Iteration,2,87,0.204394,22.507453
[MO833] Paramount Iteration,1,87,0.204537,22.507434
[MO833] Paramount Iteration,3,87,0.204424,22.507453
[MO833] Paramount Iteration,0,88,0.205369,22.712943
[MO833] Paramount Iteration,2,88,0.205458,22.712964
[MO833] Paramount Iteration,1,88,0.205487,22.712943
[MO833] Paramount Iteration,3,88,0.205493,22.712964
[MO833] Paramount Iteration,2,89,0.359050,23.072066
[MO833] Paramount Iteration,1,89,0.359090,23.072093
[MO833] Paramount Iteration,3,89,0.359085,23.072067
[MO833] Paramount Iteration,0,89,0.359208,23.072176
[MO833] Paramount Iteration,0,90,0.280451,23.352667
[MO833] Paramount Iteration,1,90,0.280525,23.352666
[MO833] Paramount Iteration,2,90,0.280698,23.352787
[MO833] Paramount Iteration,3,90,0.280637,23.352779
[MO833] Paramount Iteration,0,91,0.205603,23.558377
[MO833] Paramount Iteration,2,91,0.205605,23.558404
[MO833] Paramount Iteration,1,91,0.205692,23.558376
[MO833] Paramount Iteration,3,91,0.205536,23.558405
[MO833] Paramount Iteration,0,92,0.358645,23.917045
[MO833] Paramount Iteration,1,92,0.358600,23.917044
[MO833] Paramount Iteration,2,92,0.358698,23.917122
[MO833] Paramount Iteration,3,92,0.358652,23.917121
[MO833] Paramount Iteration,2,93,0.206272,24.123412
[MO833] Paramount Iteration,0,93,0.206204,24.123404
[MO833] Paramount Iteration,3,93,0.206220,24.123412
[MO833] Paramount Iteration,1,93,0.206340,24.123404
[MO833] Paramount Iteration,0,94,0.206618,24.330130
[MO833] Paramount Iteration,2,94,0.206726,24.330157
[MO833] Paramount Iteration,1,94,0.206666,24.330129
[MO833] Paramount Iteration,3,94,0.206681,24.330157
[MO833] Paramount Iteration,0,95,0.359069,24.689348
[MO833] Paramount Iteration,2,95,0.359187,24.689368
[MO833] Paramount Iteration,1,95,0.359194,24.689347
[MO833] Paramount Iteration,3,95,0.359140,24.689367
[MO833] Paramount Iteration,0,96,0.206849,24.896219
[MO833] Paramount Iteration,1,96,0.206808,24.896219
[MO833] Paramount Iteration,2,96,0.206878,24.896270
[MO833] Paramount Iteration,3,96,0.206831,24.896268
[MO833] Paramount Iteration,0,97,0.205594,25.101835
[MO833] Paramount Iteration,1,97,0.205539,25.101834
[MO833] Paramount Iteration,2,97,0.205559,25.101850
[MO833] Paramount Iteration,3,97,0.205500,25.101851
[MO833] Paramount Iteration,0,98,0.360659,25.462637
[MO833] Paramount Iteration,2,98,0.360765,25.462668
[MO833] Paramount Iteration,1,98,0.360780,25.462636
[MO833] Paramount Iteration,3,98,0.360800,25.462669
[MO833] Paramount Iteration,0,99,0.208111,25.670773
[MO833] Paramount Iteration,2,99,0.208075,25.670797
[MO833] Paramount Iteration,1,99,0.208065,25.670772
[MO833] Paramount Iteration,3,99,0.208111,25.670797
     100    1727.5562    1930.0116     3712.096    3597.8437         3844          248   -156.58205 
[MO833] Paramount Iteration,1,100,0.311404,25.982234
[MO833] Paramount Iteration,0,100,0.311541,25.982335
[MO833] Paramount Iteration,2,100,0.311572,25.982423
[MO833] Paramount Iteration,3,100,0.311605,25.982421
Loop time of 25.3441 on 4 procs for 100 steps with 24000 atoms

Performance: 0.682 ns/day, 35.200 hours/ns, 3.946 timesteps/s
95.3% CPU use with 4 MPI tasks x 1 OpenMP threads

MPI task timing breakdown:
Section |  min time  |  avg time  |  max time  |%varavg| %total
---------------------------------------------------------------
Pair    | 13.161     | 14.72      | 16.342     |  37.7 | 58.08
Bond    | 0.00015759 | 0.00020063 | 0.0002358  |   0.0 |  0.00
Kspace  | 3.9126     | 5.5318     | 7.0867     |  61.5 | 21.83
Neigh   | 4.527      | 4.529      | 4.5308     |   0.1 | 17.87
Comm    | 0.24391    | 0.25138    | 0.25681    |   1.0 |  0.99
Output  | 0.029486   | 0.031303   | 0.032563   |   0.6 |  0.12
Modify  | 0.23221    | 0.23804    | 0.24757    |   1.2 |  0.94
Other   |            | 0.04275    |            |       |  0.17

Nlocal:    6000 ave 6009 max 5992 min
Histogram: 1 0 1 0 0 1 0 0 0 1
Nghost:    20866 ave 20882 max 20859 min
Histogram: 2 1 0 0 0 0 0 0 0 1
Neighs:    4.08203e+06 ave 4.50809e+06 max 3.65908e+06 min
Histogram: 2 0 0 0 0 0 0 0 0 2

Total # of neighbors = 16328128
Ave neighs/atom = 680.339
Ave special neighs/atom = 2
Neighbor list builds = 31
Dangerous builds = 0
Total wall time: 0:00:26
[MO833] Beta,1,0.032720
[MO833] Beta,2,0.032715
[MO833] PI avg,1,0.253439,100
[MO833] PI avg,2,0.253440,100
[MO833] Beta,3,0.032732
[MO833] PI avg,3,0.253440,100
[MO833] Beta,0,0.032747
[MO833] PI avg,0,0.253440,100
[MO833] Total time,26.173924
