LAMMPS (3 Mar 2020)
OMP_NUM_THREADS environment is not set. Defaulting to 1 thread. (src/comm.cpp:94)
  using 1 OpenMP thread(s) per MPI task
Reading data file ...
  orthogonal box = (0 0 0) to (3.1 3.1 3.1)
  2 by 2 by 4 MPI processor grid
  reading atoms ...
  3 atoms
  scanning bonds ...
  2 = max bonds/atom
  scanning angles ...
  1 = max angles/atom
  reading bonds ...
  2 bonds
  reading angles ...
  1 angles
Finding 1-2 1-3 1-4 neighbors ...
  special bond factors lj:   0          0          0         
  special bond factors coul: 0          0          0         
  2 = max # of 1-2 neighbors
  1 = max # of 1-3 neighbors
  1 = max # of 1-4 neighbors
  2 = max # of special neighbors
  special bonds CPU = 0.00498271 secs
  read_data CPU = 0.0256817 secs
Replicating atoms ...
  orthogonal box = (0 0 0) to (62 62 62)
  2 by 2 by 4 MPI processor grid
  24000 atoms
  16000 bonds
  8000 angles
Finding 1-2 1-3 1-4 neighbors ...
  special bond factors lj:   0          0          0         
  special bond factors coul: 0          0          0         
  2 = max # of 1-2 neighbors
  1 = max # of 1-3 neighbors
  1 = max # of 1-4 neighbors
  2 = max # of special neighbors
  special bonds CPU = 0.00611496 secs
  replicate CPU = 0.011915 secs
Displacing atoms ...
Changing box ...
  orthogonal box = (-31 0 0) to (31 62 62)
Changing box ...
  orthogonal box = (-31 -31 0) to (31 31 62)
Changing box ...
  orthogonal box = (-31 -31 -31) to (31 31 31)
Changing box ...
  orthogonal box = (-31 -31 -124) to (31 31 124)
16000 atoms in group hydrogen
8000 atoms in group oxygen
Finding SHAKE clusters ...
  0 = # of size 2 clusters
  0 = # of size 3 clusters
  0 = # of size 4 clusters
  8000 = # of frozen angles
  find clusters CPU = 0.00389338 secs
PPPM initialization ...
  extracting TIP4P info from pair style
  using 12-bit tables for long-range coulomb (src/kspace.cpp:332)
  G vector (1/distance) = 0.230756
  grid = 45 45 120
  stencil order = 5
  estimated absolute RMS force accuracy = 0.00315988
  estimated relative force accuracy = 9.51587e-06
  using double precision KISS FFT
  3d grid and FFT values/proc = 31117 16200
Neighbor list info ...
  update every 1 steps, delay 0 steps, check yes
  max neighbors/atom: 2000, page size: 100000
  master list distance cutoff = 15.3092
  ghost atom cutoff = 15.3092
  binsize = 7.6546, bins = 9 9 33
  1 neighbor lists, perpetual/occasional/extra = 1 0 0
  (1) pair lj/cut/tip4p/long, perpetual
      attributes: half, newton on
      pair build: half/bin/newton
      stencil: half/bin/3d/newton
      bin: standard
Setting up Verlet run ...
  Unit style    : real
  Current step  : 0
  Time step     : 2
Per MPI rank memory allocation (min/avg/max) = 12.52 | 21.19 | 30.55 Mbytes
Step Temp f_TAve Press f_PAve v_xyArea Lz f_st 
       0    450.00938            0    13733.809            0         3844          248            0 
[MO833] Paramount Iteration,0,1,0.095287,0.523711
[MO833] Paramount Iteration,1,1,0.095298,0.523718
[MO833] Paramount Iteration,10,1,0.095302,0.523768
[MO833] Paramount Iteration,2,1,0.095302,0.523681
[MO833] Paramount Iteration,6,1,0.095325,0.523706
[MO833] Paramount Iteration,8,1,0.095285,0.523656
[MO833] Paramount Iteration,12,1,0.095277,0.523640
[MO833] Paramount Iteration,4,1,0.095273,0.523470
[MO833] Paramount Iteration,14,1,0.095336,0.520081
[MO833] Paramount Iteration,11,1,0.095294,0.523759
[MO833] Paramount Iteration,3,1,0.095290,0.523670
[MO833] Paramount Iteration,7,1,0.095313,0.523693
[MO833] Paramount Iteration,9,1,0.095293,0.523630
[MO833] Paramount Iteration,13,1,0.095289,0.523645
[MO833] Paramount Iteration,5,1,0.095284,0.523481
[MO833] Paramount Iteration,15,1,0.095326,0.520079
[MO833] Paramount Iteration,0,2,0.095219,0.619172
[MO833] Paramount Iteration,12,2,0.095389,0.619095
[MO833] Paramount Iteration,4,2,0.095416,0.618925
[MO833] Paramount Iteration,1,2,0.095446,0.619181
[MO833] Paramount Iteration,10,2,0.095468,0.619248
[MO833] Paramount Iteration,3,2,0.095445,0.619143
[MO833] Paramount Iteration,6,2,0.095445,0.619170
[MO833] Paramount Iteration,8,2,0.095439,0.619126
[MO833] Paramount Iteration,13,2,0.095442,0.619101
[MO833] Paramount Iteration,5,2,0.095389,0.618941
[MO833] Paramount Iteration,14,2,0.095433,0.615530
[MO833] Paramount Iteration,11,2,0.095429,0.619241
[MO833] Paramount Iteration,2,2,0.095430,0.619160
[MO833] Paramount Iteration,7,2,0.095402,0.619158
[MO833] Paramount Iteration,9,2,0.095406,0.619100
[MO833] Paramount Iteration,15,2,0.095388,0.615528
[MO833] Paramount Iteration,10,3,0.096174,0.715433
[MO833] Paramount Iteration,6,3,0.096188,0.715375
[MO833] Paramount Iteration,8,3,0.096184,0.715331
[MO833] Paramount Iteration,12,3,0.096111,0.715265
[MO833] Paramount Iteration,4,3,0.096186,0.715141
[MO833] Paramount Iteration,14,3,0.096160,0.711699
[MO833] Paramount Iteration,1,3,0.096231,0.715425
[MO833] Paramount Iteration,11,3,0.096125,0.715421
[MO833] Paramount Iteration,2,3,0.096154,0.715380
[MO833] Paramount Iteration,7,3,0.096143,0.715364
[MO833] Paramount Iteration,9,3,0.096154,0.715306
[MO833] Paramount Iteration,13,3,0.096170,0.715278
[MO833] Paramount Iteration,5,3,0.096137,0.715146
[MO833] Paramount Iteration,15,3,0.096111,0.711693
[MO833] Paramount Iteration,3,3,0.096204,0.715371
[MO833] Paramount Iteration,0,3,0.095978,0.715419
[MO833] Paramount Iteration,0,4,0.095490,0.811151
[MO833] Paramount Iteration,10,4,0.095736,0.811180
[MO833] Paramount Iteration,2,4,0.095694,0.811129
[MO833] Paramount Iteration,6,4,0.095725,0.811108
[MO833] Paramount Iteration,8,4,0.095702,0.811060
[MO833] Paramount Iteration,12,4,0.095680,0.811009
[MO833] Paramount Iteration,4,4,0.095706,0.810874
[MO833] Paramount Iteration,14,4,0.095742,0.807452
[MO833] Paramount Iteration,1,4,0.095650,0.811159
[MO833] Paramount Iteration,11,4,0.095685,0.811167
[MO833] Paramount Iteration,3,4,0.095728,0.811121
[MO833] Paramount Iteration,7,4,0.095680,0.811099
[MO833] Paramount Iteration,9,4,0.095678,0.811043
[MO833] Paramount Iteration,13,4,0.095732,0.811017
[MO833] Paramount Iteration,5,4,0.095671,0.810880
[MO833] Paramount Iteration,15,4,0.095697,0.807443
[MO833] Paramount Iteration,0,5,0.095680,0.907090
[MO833] Paramount Iteration,10,5,0.095917,0.907113
[MO833] Paramount Iteration,6,5,0.095955,0.907074
[MO833] Paramount Iteration,8,5,0.095916,0.907008
[MO833] Paramount Iteration,12,5,0.095920,0.906989
[MO833] Paramount Iteration,4,5,0.095935,0.906834
[MO833] Paramount Iteration,1,5,0.095929,0.907095
[MO833] Paramount Iteration,11,5,0.095871,0.907104
[MO833] Paramount Iteration,2,5,0.095878,0.907062
[MO833] Paramount Iteration,7,5,0.095914,0.907066
[MO833] Paramount Iteration,9,5,0.095882,0.906981
[MO833] Paramount Iteration,13,5,0.095968,0.906992
[MO833] Paramount Iteration,5,5,0.095915,0.906853
[MO833] Paramount Iteration,14,5,0.095952,0.903410
[MO833] Paramount Iteration,3,5,0.095909,0.907052
[MO833] Paramount Iteration,15,5,0.095909,0.903404
[MO833] Paramount Iteration,0,6,0.095494,1.002827
[MO833] Paramount Iteration,1,6,0.095728,1.002832
[MO833] Paramount Iteration,10,6,0.095749,1.002879
[MO833] Paramount Iteration,2,6,0.095682,1.002798
[MO833] Paramount Iteration,6,6,0.095740,1.002830
[MO833] Paramount Iteration,8,6,0.095742,1.002772
[MO833] Paramount Iteration,12,6,0.095717,1.002766
[MO833] Paramount Iteration,4,6,0.095683,1.002587
[MO833] Paramount Iteration,14,6,0.095780,0.999200
[MO833] Paramount Iteration,11,6,0.095701,1.002869
[MO833] Paramount Iteration,3,6,0.095718,1.002791
[MO833] Paramount Iteration,7,6,0.095699,1.002823
[MO833] Paramount Iteration,9,6,0.095708,1.002749
[MO833] Paramount Iteration,13,6,0.095769,1.002769
[MO833] Paramount Iteration,5,6,0.095738,1.002602
[MO833] Paramount Iteration,15,6,0.095738,0.999199
[MO833] Paramount Iteration,0,7,0.176663,1.179752
[MO833] Paramount Iteration,10,7,0.176917,1.179804
[MO833] Paramount Iteration,2,7,0.176878,1.179733
[MO833] Paramount Iteration,6,7,0.176878,1.179723
[MO833] Paramount Iteration,8,7,0.176880,1.179675
[MO833] Paramount Iteration,12,7,0.176792,1.179621
[MO833] Paramount Iteration,4,7,0.176841,1.179487
[MO833] Paramount Iteration,14,7,0.176862,1.176071
[MO833] Paramount Iteration,1,7,0.176916,1.179758
[MO833] Paramount Iteration,11,7,0.176869,1.179795
[MO833] Paramount Iteration,3,7,0.176911,1.179724
[MO833] Paramount Iteration,7,7,0.176836,1.179713
[MO833] Paramount Iteration,9,7,0.176841,1.179651
[MO833] Paramount Iteration,13,7,0.176845,1.179624
[MO833] Paramount Iteration,5,7,0.176884,1.179493
[MO833] Paramount Iteration,15,7,0.176819,1.176070
[MO833] Paramount Iteration,0,8,0.098708,1.278723
[MO833] Paramount Iteration,10,8,0.098973,1.278785
[MO833] Paramount Iteration,2,8,0.098909,1.278698
[MO833] Paramount Iteration,6,8,0.098988,1.278719
[MO833] Paramount Iteration,8,8,0.098969,1.278668
[MO833] Paramount Iteration,12,8,0.098914,1.278597
[MO833] Paramount Iteration,4,8,0.098900,1.278440
[MO833] Paramount Iteration,1,8,0.098964,1.278731
[MO833] Paramount Iteration,11,8,0.098925,1.278775
[MO833] Paramount Iteration,3,8,0.098937,1.278684
[MO833] Paramount Iteration,7,8,0.098946,1.278708
[MO833] Paramount Iteration,9,8,0.098935,1.278642
[MO833] Paramount Iteration,13,8,0.098967,1.278600
[MO833] Paramount Iteration,5,8,0.098947,1.278449
[MO833] Paramount Iteration,14,8,0.099020,1.275100
[MO833] Paramount Iteration,15,8,0.098979,1.275100
[MO833] Paramount Iteration,0,9,0.098463,1.377445
[MO833] Paramount Iteration,12,9,0.098660,1.377326
[MO833] Paramount Iteration,4,9,0.098677,1.377170
[MO833] Paramount Iteration,1,9,0.098713,1.377455
[MO833] Paramount Iteration,10,9,0.098716,1.377509
[MO833] Paramount Iteration,2,9,0.098689,1.377440
[MO833] Paramount Iteration,6,9,0.098687,1.377423
[MO833] Paramount Iteration,8,9,0.098704,1.377395
[MO833] Paramount Iteration,13,9,0.098711,1.377330
[MO833] Paramount Iteration,5,9,0.098722,1.377178
[MO833] Paramount Iteration,14,9,0.098688,1.373797
[MO833] Paramount Iteration,11,9,0.098667,1.377499
[MO833] Paramount Iteration,3,9,0.098717,1.377426
[MO833] Paramount Iteration,7,9,0.098638,1.377416
[MO833] Paramount Iteration,9,9,0.098669,1.377369
[MO833] Paramount Iteration,15,9,0.098639,1.373795
[MO833] Paramount Iteration,0,10,0.099185,1.476657
[MO833] Paramount Iteration,8,10,0.099170,1.476588
[MO833] Paramount Iteration,12,10,0.099170,1.476556
[MO833] Paramount Iteration,1,10,0.099155,1.476662
[MO833] Paramount Iteration,10,10,0.099183,1.476700
[MO833] Paramount Iteration,2,10,0.099131,1.476625
[MO833] Paramount Iteration,6,10,0.099221,1.476658
[MO833] Paramount Iteration,9,10,0.099136,1.476562
[MO833] Paramount Iteration,13,10,0.099224,1.476562
[MO833] Paramount Iteration,4,10,0.099200,1.476424
[MO833] Paramount Iteration,14,10,0.099197,1.473004
[MO833] Paramount Iteration,11,10,0.099135,1.476691
[MO833] Paramount Iteration,3,10,0.099162,1.476613
[MO833] Paramount Iteration,7,10,0.099181,1.476652
[MO833] Paramount Iteration,5,10,0.099244,1.476429
[MO833] Paramount Iteration,15,10,0.099146,1.472993
[MO833] Paramount Iteration,0,11,0.180745,1.657646
[MO833] Paramount Iteration,10,11,0.180961,1.657671
[MO833] Paramount Iteration,8,11,0.180954,1.657565
[MO833] Paramount Iteration,1,11,0.180980,1.657653
[MO833] Paramount Iteration,11,11,0.180912,1.657661
[MO833] Paramount Iteration,2,11,0.180923,1.657602
[MO833] Paramount Iteration,6,11,0.180951,1.657622
[MO833] Paramount Iteration,9,11,0.180920,1.657539
[MO833] Paramount Iteration,12,11,0.180938,1.657551
[MO833] Paramount Iteration,4,11,0.180905,1.657384
[MO833] Paramount Iteration,14,11,0.180986,1.653998
[MO833] Paramount Iteration,3,11,0.180958,1.657593
[MO833] Paramount Iteration,7,11,0.180918,1.657621
[MO833] Paramount Iteration,13,11,0.180987,1.657556
[MO833] Paramount Iteration,5,11,0.180954,1.657395
[MO833] Paramount Iteration,15,11,0.180950,1.654000
[MO833] Paramount Iteration,0,12,0.100518,1.758404
[MO833] Paramount Iteration,10,12,0.100732,1.758412
[MO833] Paramount Iteration,2,12,0.100678,1.758332
[MO833] Paramount Iteration,6,12,0.100724,1.758361
[MO833] Paramount Iteration,8,12,0.100720,1.758308
[MO833] Paramount Iteration,12,12,0.100682,1.758294
[MO833] Paramount Iteration,4,12,0.100684,1.758123
[MO833] Paramount Iteration,14,12,0.100727,1.754735
[MO833] Paramount Iteration,1,12,0.100748,1.758409
[MO833] Paramount Iteration,11,12,0.100684,1.758403
[MO833] Paramount Iteration,3,12,0.100704,1.758318
[MO833] Paramount Iteration,7,12,0.100686,1.758354
[MO833] Paramount Iteration,9,12,0.100687,1.758282
[MO833] Paramount Iteration,13,12,0.100739,1.758301
[MO833] Paramount Iteration,5,12,0.100748,1.758150
[MO833] Paramount Iteration,15,12,0.100688,1.754735
[MO833] Paramount Iteration,0,13,0.100106,1.858774
[MO833] Paramount Iteration,1,13,0.100368,1.858785
[MO833] Paramount Iteration,10,13,0.100402,1.858824
[MO833] Paramount Iteration,2,13,0.100354,1.858741
[MO833] Paramount Iteration,6,13,0.100393,1.858770
[MO833] Paramount Iteration,8,13,0.100387,1.858715
[MO833] Paramount Iteration,12,13,0.100343,1.858697
[MO833] Paramount Iteration,4,13,0.100339,1.858528
[MO833] Paramount Iteration,14,13,0.100408,1.855155
[MO833] Paramount Iteration,11,13,0.100355,1.858815
[MO833] Paramount Iteration,3,13,0.100377,1.858722
[MO833] Paramount Iteration,7,13,0.100363,1.858772
[MO833] Paramount Iteration,9,13,0.100357,1.858691
[MO833] Paramount Iteration,13,13,0.100393,1.858700
[MO833] Paramount Iteration,5,13,0.100386,1.858543
[MO833] Paramount Iteration,15,13,0.100364,1.855153
[MO833] Paramount Iteration,0,14,0.181755,2.040778
[MO833] Paramount Iteration,1,14,0.181994,2.040790
[MO833] Paramount Iteration,10,14,0.181987,2.040820
[MO833] Paramount Iteration,2,14,0.181946,2.040739
[MO833] Paramount Iteration,6,14,0.181981,2.040772
[MO833] Paramount Iteration,8,14,0.181982,2.040720
[MO833] Paramount Iteration,12,14,0.181945,2.040703
[MO833] Paramount Iteration,4,14,0.181939,2.040527
[MO833] Paramount Iteration,14,14,0.181969,2.037143
[MO833] Paramount Iteration,11,14,0.181941,2.040811
[MO833] Paramount Iteration,3,14,0.181978,2.040729
[MO833] Paramount Iteration,7,14,0.181943,2.040765
[MO833] Paramount Iteration,9,14,0.181944,2.040694
[MO833] Paramount Iteration,13,14,0.181997,2.040706
[MO833] Paramount Iteration,5,14,0.181992,2.040542
[MO833] Paramount Iteration,15,14,0.181928,2.037143
[MO833] Paramount Iteration,0,15,0.100833,2.141857
[MO833] Paramount Iteration,1,15,0.101064,2.141867
[MO833] Paramount Iteration,10,15,0.101093,2.141924
[MO833] Paramount Iteration,6,15,0.101059,2.141843
[MO833] Paramount Iteration,8,15,0.101067,2.141810
[MO833] Paramount Iteration,12,15,0.101000,2.141754
[MO833] Paramount Iteration,4,15,0.101019,2.141601
[MO833] Paramount Iteration,11,15,0.101042,2.141916
[MO833] Paramount Iteration,2,15,0.101047,2.141842
[MO833] Paramount Iteration,7,15,0.101017,2.141834
[MO833] Paramount Iteration,9,15,0.101034,2.141784
[MO833] Paramount Iteration,13,15,0.101042,2.141757
[MO833] Paramount Iteration,5,15,0.101060,2.141609
[MO833] Paramount Iteration,14,15,0.101047,2.138201
[MO833] Paramount Iteration,3,15,0.101073,2.141826
[MO833] Paramount Iteration,15,15,0.101003,2.138200
[MO833] Paramount Iteration,0,16,0.101163,2.243276
[MO833] Paramount Iteration,3,16,0.101380,2.243232
[MO833] Paramount Iteration,8,16,0.101382,2.243217
[MO833] Paramount Iteration,12,16,0.101371,2.243187
[MO833] Paramount Iteration,4,16,0.101360,2.243016
[MO833] Paramount Iteration,1,16,0.101407,2.243286
[MO833] Paramount Iteration,10,16,0.101396,2.243330
[MO833] Paramount Iteration,2,16,0.101356,2.243249
[MO833] Paramount Iteration,6,16,0.101413,2.243268
[MO833] Paramount Iteration,9,16,0.101353,2.243194
[MO833] Paramount Iteration,13,16,0.101424,2.243190
[MO833] Paramount Iteration,5,16,0.101415,2.243033
[MO833] Paramount Iteration,14,16,0.101436,2.239647
[MO833] Paramount Iteration,11,16,0.101345,2.243319
[MO833] Paramount Iteration,7,16,0.101371,2.243258
[MO833] Paramount Iteration,15,16,0.101357,2.239645
[MO833] Paramount Iteration,1,17,0.181732,2.425079
[MO833] Paramount Iteration,10,17,0.181752,2.425097
[MO833] Paramount Iteration,2,17,0.181698,2.425012
[MO833] Paramount Iteration,8,17,0.181761,2.425000
[MO833] Paramount Iteration,12,17,0.181661,2.424907
[MO833] Paramount Iteration,4,17,0.181705,2.424778
[MO833] Paramount Iteration,11,17,0.181704,2.425087
[MO833] Paramount Iteration,3,17,0.181741,2.424996
[MO833] Paramount Iteration,6,17,0.181766,2.425044
[MO833] Paramount Iteration,9,17,0.181727,2.424973
[MO833] Paramount Iteration,13,17,0.181716,2.424915
[MO833] Paramount Iteration,5,17,0.181746,2.424785
[MO833] Paramount Iteration,14,17,0.181777,2.421434
[MO833] Paramount Iteration,7,17,0.181722,2.425033
[MO833] Paramount Iteration,15,17,0.181727,2.421431
[MO833] Paramount Iteration,0,17,0.181752,2.425060
[MO833] Paramount Iteration,0,18,0.100370,2.525688
[MO833] Paramount Iteration,1,18,0.100578,2.525701
[MO833] Paramount Iteration,10,18,0.100624,2.525729
[MO833] Paramount Iteration,2,18,0.100586,2.525651
[MO833] Paramount Iteration,6,18,0.100624,2.525684
[MO833] Paramount Iteration,8,18,0.100601,2.525624
[MO833] Paramount Iteration,12,18,0.100653,2.525621
[MO833] Paramount Iteration,4,18,0.100616,2.525446
[MO833] Paramount Iteration,14,18,0.100619,2.522071
[MO833] Paramount Iteration,11,18,0.100579,2.525720
[MO833] Paramount Iteration,3,18,0.100616,2.525640
[MO833] Paramount Iteration,7,18,0.100570,2.525671
[MO833] Paramount Iteration,9,18,0.100568,2.525598
[MO833] Paramount Iteration,13,18,0.100701,2.525624
[MO833] Paramount Iteration,5,18,0.100667,2.525460
[MO833] Paramount Iteration,15,18,0.100576,2.522070
[MO833] Paramount Iteration,0,19,0.101675,2.627391
[MO833] Paramount Iteration,10,19,0.101654,2.627391
[MO833] Paramount Iteration,2,19,0.101640,2.627341
[MO833] Paramount Iteration,8,19,0.101638,2.627284
[MO833] Paramount Iteration,12,19,0.101570,2.627250
[MO833] Paramount Iteration,4,19,0.101612,2.627114
[MO833] Paramount Iteration,14,19,0.101647,2.623727
[MO833] Paramount Iteration,1,19,0.101646,2.627398
[MO833] Paramount Iteration,11,19,0.101608,2.627384
[MO833] Paramount Iteration,3,19,0.101670,2.627332
[MO833] Paramount Iteration,6,19,0.101685,2.627379
[MO833] Paramount Iteration,9,19,0.101607,2.627260
[MO833] Paramount Iteration,13,19,0.101623,2.627256
[MO833] Paramount Iteration,5,19,0.101653,2.627120
[MO833] Paramount Iteration,15,19,0.101601,2.623721
[MO833] Paramount Iteration,7,19,0.101641,2.627369
[MO833] Paramount Iteration,0,20,0.183281,2.810694
[MO833] Paramount Iteration,8,20,0.183280,2.810591
[MO833] Paramount Iteration,12,20,0.183228,2.810538
[MO833] Paramount Iteration,4,20,0.183235,2.810406
[MO833] Paramount Iteration,1,20,0.183251,2.810700
[MO833] Paramount Iteration,10,20,0.183304,2.810706
[MO833] Paramount Iteration,2,20,0.183273,2.810666
[MO833] Paramount Iteration,6,20,0.183252,2.810641
[MO833] Paramount Iteration,9,20,0.183301,2.810620
[MO833] Paramount Iteration,13,20,0.183282,2.810545
[MO833] Paramount Iteration,5,20,0.183284,2.810415
[MO833] Paramount Iteration,14,20,0.183270,2.807004
[MO833] Paramount Iteration,11,20,0.183252,2.810694
[MO833] Paramount Iteration,3,20,0.183299,2.810653
[MO833] Paramount Iteration,7,20,0.183210,2.810632
[MO833] Paramount Iteration,15,20,0.183226,2.806998
[MO833] Paramount Iteration,10,21,0.101837,2.912558
[MO833] Paramount Iteration,2,21,0.101786,2.912505
[MO833] Paramount Iteration,8,21,0.101849,2.912463
[MO833] Paramount Iteration,12,21,0.101846,2.912441
[MO833] Paramount Iteration,4,21,0.101849,2.912310
[MO833] Paramount Iteration,14,21,0.101891,2.908902
[MO833] Paramount Iteration,0,21,0.101660,2.912578
[MO833] Paramount Iteration,11,21,0.101778,2.912547
[MO833] Paramount Iteration,3,21,0.101821,2.912497
[MO833] Paramount Iteration,6,21,0.101896,2.912546
[MO833] Paramount Iteration,9,21,0.101789,2.912436
[MO833] Paramount Iteration,13,21,0.101896,2.912448
[MO833] Paramount Iteration,5,21,0.101893,2.912315
[MO833] Paramount Iteration,15,21,0.101845,2.908897
[MO833] Paramount Iteration,1,21,0.101820,2.912588
[MO833] Paramount Iteration,7,21,0.101853,2.912535
[MO833] Paramount Iteration,0,22,0.101718,3.014523
[MO833] Paramount Iteration,1,22,0.101859,3.014526
[MO833] Paramount Iteration,10,22,0.101969,3.014545
[MO833] Paramount Iteration,2,22,0.101916,3.014477
[MO833] Paramount Iteration,6,22,0.101953,3.014508
[MO833] Paramount Iteration,8,22,0.101959,3.014445
[MO833] Paramount Iteration,12,22,0.101920,3.014423
[MO833] Paramount Iteration,4,22,0.101894,3.014259
[MO833] Paramount Iteration,14,22,0.101982,3.010890
[MO833] Paramount Iteration,11,22,0.101919,3.014535
[MO833] Paramount Iteration,3,22,0.101946,3.014467
[MO833] Paramount Iteration,7,22,0.101911,3.014500
[MO833] Paramount Iteration,9,22,0.101926,3.014420
[MO833] Paramount Iteration,13,22,0.101972,3.014427
[MO833] Paramount Iteration,5,22,0.101945,3.014272
[MO833] Paramount Iteration,15,22,0.101938,3.010889
[MO833] Paramount Iteration,0,23,0.181666,3.196212
[MO833] Paramount Iteration,1,23,0.181643,3.196224
[MO833] Paramount Iteration,10,23,0.181686,3.196240
[MO833] Paramount Iteration,2,23,0.181632,3.196163
[MO833] Paramount Iteration,6,23,0.181676,3.196194
[MO833] Paramount Iteration,8,23,0.181683,3.196149
[MO833] Paramount Iteration,12,23,0.181639,3.196123
[MO833] Paramount Iteration,4,23,0.181641,3.195955
[MO833] Paramount Iteration,14,23,0.181679,3.192580
[MO833] Paramount Iteration,11,23,0.181635,3.196229
[MO833] Paramount Iteration,3,23,0.181658,3.196148
[MO833] Paramount Iteration,7,23,0.181630,3.196182
[MO833] Paramount Iteration,9,23,0.181632,3.196129
[MO833] Paramount Iteration,13,23,0.181694,3.196130
[MO833] Paramount Iteration,5,23,0.181692,3.195970
[MO833] Paramount Iteration,15,23,0.181635,3.192579
[MO833] Paramount Iteration,0,24,0.101322,3.297562
[MO833] Paramount Iteration,8,24,0.101295,3.297467
[MO833] Paramount Iteration,12,24,0.101272,3.297456
[MO833] Paramount Iteration,4,24,0.101272,3.297284
[MO833] Paramount Iteration,1,24,0.101288,3.297567
[MO833] Paramount Iteration,10,24,0.101313,3.297562
[MO833] Paramount Iteration,2,24,0.101308,3.297521
[MO833] Paramount Iteration,6,24,0.101322,3.297528
[MO833] Paramount Iteration,9,24,0.101236,3.297442
[MO833] Paramount Iteration,13,24,0.101324,3.297461
[MO833] Paramount Iteration,5,24,0.101335,3.297311
[MO833] Paramount Iteration,14,24,0.101327,3.293915
[MO833] Paramount Iteration,11,24,0.101265,3.297554
[MO833] Paramount Iteration,3,24,0.101339,3.297512
[MO833] Paramount Iteration,7,24,0.101281,3.297521
[MO833] Paramount Iteration,15,24,0.101285,3.293914
[MO833] Paramount Iteration,10,25,0.101311,3.398887
[MO833] Paramount Iteration,2,25,0.101252,3.398827
[MO833] Paramount Iteration,6,25,0.101311,3.398857
[MO833] Paramount Iteration,8,25,0.101320,3.398812
[MO833] Paramount Iteration,12,25,0.101209,3.398748
[MO833] Paramount Iteration,4,25,0.101286,3.398621
[MO833] Paramount Iteration,14,25,0.101287,3.395211
[MO833] Paramount Iteration,1,25,0.101314,3.398937
[MO833] Paramount Iteration,11,25,0.101262,3.398879
[MO833] Paramount Iteration,3,25,0.101284,3.398818
[MO833] Paramount Iteration,7,25,0.101266,3.398846
[MO833] Paramount Iteration,9,25,0.101280,3.398785
[MO833] Paramount Iteration,13,25,0.101291,3.398759
[MO833] Paramount Iteration,5,25,0.101311,3.398629
[MO833] Paramount Iteration,15,25,0.101232,3.395200
[MO833] Paramount Iteration,0,25,0.101339,3.398923
[MO833] Paramount Iteration,0,26,0.181947,3.581097
[MO833] Paramount Iteration,2,26,0.182150,3.581032
[MO833] Paramount Iteration,4,26,0.182138,3.580813
[MO833] Paramount Iteration,1,26,0.182072,3.581104
[MO833] Paramount Iteration,10,26,0.182207,3.581108
[MO833] Paramount Iteration,3,26,0.182180,3.581021
[MO833] Paramount Iteration,6,26,0.182213,3.581079
[MO833] Paramount Iteration,8,26,0.182168,3.581007
[MO833] Paramount Iteration,12,26,0.182171,3.580979
[MO833] Paramount Iteration,5,26,0.182187,3.580824
[MO833] Paramount Iteration,11,26,0.182159,3.581098
[MO833] Paramount Iteration,7,26,0.182170,3.581070
[MO833] Paramount Iteration,9,26,0.182124,3.580980
[MO833] Paramount Iteration,13,26,0.182216,3.580983
[MO833] Paramount Iteration,14,26,0.182264,3.577482
[MO833] Paramount Iteration,15,26,0.182227,3.577481
[MO833] Paramount Iteration,0,27,0.101841,3.682963
[MO833] Paramount Iteration,1,27,0.101817,3.682976
[MO833] Paramount Iteration,10,27,0.101871,3.682986
[MO833] Paramount Iteration,2,27,0.101823,3.682907
[MO833] Paramount Iteration,6,27,0.101845,3.682938
[MO833] Paramount Iteration,8,27,0.101853,3.682885
[MO833] Paramount Iteration,12,27,0.101827,3.682867
[MO833] Paramount Iteration,4,27,0.101834,3.682702
[MO833] Paramount Iteration,14,27,0.101858,3.679349
[MO833] Paramount Iteration,11,27,0.101822,3.682977
[MO833] Paramount Iteration,3,27,0.101848,3.682892
[MO833] Paramount Iteration,7,27,0.101802,3.682928
[MO833] Paramount Iteration,9,27,0.101820,3.682859
[MO833] Paramount Iteration,13,27,0.101878,3.682870
[MO833] Paramount Iteration,5,27,0.101882,3.682713
[MO833] Paramount Iteration,15,27,0.101801,3.679346
[MO833] Paramount Iteration,0,28,0.101826,3.784818
[MO833] Paramount Iteration,2,28,0.101778,3.784748
[MO833] Paramount Iteration,8,28,0.101822,3.784727
[MO833] Paramount Iteration,4,28,0.101783,3.784540
[MO833] Paramount Iteration,1,28,0.101791,3.784824
[MO833] Paramount Iteration,10,28,0.101825,3.784821
[MO833] Paramount Iteration,3,28,0.101816,3.784737
[MO833] Paramount Iteration,6,28,0.101812,3.784769
[MO833] Paramount Iteration,9,28,0.101786,3.784699
[MO833] Paramount Iteration,12,28,0.101786,3.784712
[MO833] Paramount Iteration,5,28,0.101832,3.784552
[MO833] Paramount Iteration,14,28,0.101812,3.781170
[MO833] Paramount Iteration,11,28,0.101774,3.784811
[MO833] Paramount Iteration,7,28,0.101765,3.784757
[MO833] Paramount Iteration,13,28,0.101839,3.784717
[MO833] Paramount Iteration,15,28,0.101755,3.781171
[MO833] Paramount Iteration,0,29,0.182625,3.967466
[MO833] Paramount Iteration,10,29,0.182624,3.967455
[MO833] Paramount Iteration,2,29,0.182601,3.967401
[MO833] Paramount Iteration,8,29,0.182612,3.967363
[MO833] Paramount Iteration,12,29,0.182572,3.967345
[MO833] Paramount Iteration,4,29,0.182581,3.967178
[MO833] Paramount Iteration,1,29,0.182596,3.967472
[MO833] Paramount Iteration,11,29,0.182590,3.967460
[MO833] Paramount Iteration,3,29,0.182635,3.967394
[MO833] Paramount Iteration,6,29,0.182635,3.967422
[MO833] Paramount Iteration,9,29,0.182577,3.967337
[MO833] Paramount Iteration,13,29,0.182624,3.967348
[MO833] Paramount Iteration,5,29,0.182630,3.967188
[MO833] Paramount Iteration,14,29,0.182622,3.963804
[MO833] Paramount Iteration,7,29,0.182589,3.967412
[MO833] Paramount Iteration,15,29,0.182577,3.963803
[MO833] Paramount Iteration,0,30,0.101743,4.069230
[MO833] Paramount Iteration,1,30,0.101713,4.069236
[MO833] Paramount Iteration,10,30,0.101788,4.069264
[MO833] Paramount Iteration,8,30,0.101746,4.069130
[MO833] Paramount Iteration,12,30,0.101711,4.069116
[MO833] Paramount Iteration,4,30,0.101715,4.068948
[MO833] Paramount Iteration,11,30,0.101740,4.069253
[MO833] Paramount Iteration,2,30,0.101765,4.069225
[MO833] Paramount Iteration,9,30,0.101713,4.069104
[MO833] Paramount Iteration,13,30,0.101762,4.069118
[MO833] Paramount Iteration,5,30,0.101762,4.068958
[MO833] Paramount Iteration,3,30,0.101800,4.069217
[MO833] Paramount Iteration,6,30,0.101835,4.069266
[MO833] Paramount Iteration,14,30,0.101774,4.065590
[MO833] Paramount Iteration,7,30,0.101791,4.069257
[MO833] Paramount Iteration,15,30,0.101734,4.065590
[MO833] Paramount Iteration,0,31,0.101792,4.171044
[MO833] Paramount Iteration,6,31,0.101712,4.170994
[MO833] Paramount Iteration,8,31,0.101802,4.170954
[MO833] Paramount Iteration,12,31,0.101740,4.170914
[MO833] Paramount Iteration,4,31,0.101749,4.170755
[MO833] Paramount Iteration,14,31,0.101776,4.167378
[MO833] Paramount Iteration,1,31,0.101761,4.171049
[MO833] Paramount Iteration,10,31,0.101797,4.171077
[MO833] Paramount Iteration,2,31,0.101716,4.170999
[MO833] Paramount Iteration,7,31,0.101661,4.170982
[MO833] Paramount Iteration,9,31,0.101763,4.170928
[MO833] Paramount Iteration,13,31,0.101791,4.170917
[MO833] Paramount Iteration,5,31,0.101796,4.170763
[MO833] Paramount Iteration,15,31,0.101729,4.167376
[MO833] Paramount Iteration,11,31,0.101745,4.171066
[MO833] Paramount Iteration,3,31,0.101745,4.170986
[MO833] Paramount Iteration,0,32,0.182552,4.353629
[MO833] Paramount Iteration,1,32,0.182345,4.353635
[MO833] Paramount Iteration,10,32,0.182562,4.353647
[MO833] Paramount Iteration,3,32,0.182549,4.353558
[MO833] Paramount Iteration,6,32,0.182610,4.353616
[MO833] Paramount Iteration,8,32,0.182575,4.353551
[MO833] Paramount Iteration,12,32,0.182546,4.353523
[MO833] Paramount Iteration,4,32,0.182548,4.353357
[MO833] Paramount Iteration,11,32,0.182511,4.353635
[MO833] Paramount Iteration,2,32,0.182525,4.353576
[MO833] Paramount Iteration,7,32,0.182581,4.353621
[MO833] Paramount Iteration,9,32,0.182542,4.353524
[MO833] Paramount Iteration,13,32,0.182600,4.353527
[MO833] Paramount Iteration,5,32,0.182596,4.353367
[MO833] Paramount Iteration,14,32,0.182632,4.350018
[MO833] Paramount Iteration,15,32,0.182591,4.350018
[MO833] Paramount Iteration,10,33,0.101752,4.455408
[MO833] Paramount Iteration,6,33,0.101712,4.455348
[MO833] Paramount Iteration,8,33,0.101712,4.455285
[MO833] Paramount Iteration,12,33,0.101666,4.455248
[MO833] Paramount Iteration,4,33,0.101701,4.455111
[MO833] Paramount Iteration,14,33,0.101696,4.451723
[MO833] Paramount Iteration,0,33,0.101763,4.455416
[MO833] Paramount Iteration,11,33,0.101701,4.455395
[MO833] Paramount Iteration,2,33,0.101729,4.455371
[MO833] Paramount Iteration,7,33,0.101671,4.455339
[MO833] Paramount Iteration,9,33,0.101684,4.455265
[MO833] Paramount Iteration,13,33,0.101722,4.455256
[MO833] Paramount Iteration,5,33,0.101744,4.455118
[MO833] Paramount Iteration,15,33,0.101639,4.451718
[MO833] Paramount Iteration,1,33,0.101521,4.455423
[MO833] Paramount Iteration,3,33,0.101779,4.455362
[MO833] Paramount Iteration,0,34,0.101480,4.556998
[MO833] Paramount Iteration,1,34,0.101575,4.557006
[MO833] Paramount Iteration,10,34,0.101596,4.557013
[MO833] Paramount Iteration,3,34,0.101542,4.556925
[MO833] Paramount Iteration,6,34,0.101593,4.556953
[MO833] Paramount Iteration,8,34,0.101587,4.556902
[MO833] Paramount Iteration,12,34,0.101582,4.556891
[MO833] Paramount Iteration,4,34,0.101552,4.556721
[MO833] Paramount Iteration,11,34,0.101550,4.557004
[MO833] Paramount Iteration,2,34,0.101517,4.556941
[MO833] Paramount Iteration,7,34,0.101549,4.556944
[MO833] Paramount Iteration,9,34,0.101553,4.556876
[MO833] Paramount Iteration,13,34,0.101632,4.556895
[MO833] Paramount Iteration,5,34,0.101604,4.556733
[MO833] Paramount Iteration,14,34,0.101625,4.553355
[MO833] Paramount Iteration,15,34,0.101583,4.553352
[MO833] Paramount Iteration,0,35,0.182480,4.739537
[MO833] Paramount Iteration,1,35,0.182529,4.739542
[MO833] Paramount Iteration,10,35,0.182524,4.739544
[MO833] Paramount Iteration,2,35,0.182462,4.739475
[MO833] Paramount Iteration,6,35,0.182534,4.739504
[MO833] Paramount Iteration,8,35,0.182514,4.739438
[MO833] Paramount Iteration,12,35,0.182460,4.739412
[MO833] Paramount Iteration,4,35,0.182474,4.739254
[MO833] Paramount Iteration,14,35,0.182513,4.735881
[MO833] Paramount Iteration,11,35,0.182479,4.739535
[MO833] Paramount Iteration,3,35,0.182513,4.739462
[MO833] Paramount Iteration,7,35,0.182492,4.739493
[MO833] Paramount Iteration,9,35,0.182482,4.739411
[MO833] Paramount Iteration,13,35,0.182511,4.739415
[MO833] Paramount Iteration,5,35,0.182523,4.739263
[MO833] Paramount Iteration,15,35,0.182470,4.735881
[MO833] Paramount Iteration,0,36,0.101850,4.841444
[MO833] Paramount Iteration,4,36,0.101832,4.841143
[MO833] Paramount Iteration,1,36,0.101896,4.841447
[MO833] Paramount Iteration,10,36,0.101911,4.841464
[MO833] Paramount Iteration,2,36,0.101861,4.841387
[MO833] Paramount Iteration,6,36,0.101864,4.841377
[MO833] Paramount Iteration,8,36,0.101885,4.841344
[MO833] Paramount Iteration,12,36,0.101843,4.841313
[MO833] Paramount Iteration,5,36,0.101884,4.841155
[MO833] Paramount Iteration,14,36,0.101886,4.837779
[MO833] Paramount Iteration,11,36,0.101869,4.841454
[MO833] Paramount Iteration,3,36,0.101889,4.841374
[MO833] Paramount Iteration,7,36,0.101824,4.841369
[MO833] Paramount Iteration,9,36,0.101854,4.841320
[MO833] Paramount Iteration,13,36,0.101893,4.841317
[MO833] Paramount Iteration,15,36,0.101841,4.837776
[MO833] Paramount Iteration,0,37,0.102073,4.943538
[MO833] Paramount Iteration,1,37,0.101866,4.943549
[MO833] Paramount Iteration,10,37,0.102069,4.943541
[MO833] Paramount Iteration,2,37,0.102034,4.943472
[MO833] Paramount Iteration,6,37,0.102133,4.943524
[MO833] Paramount Iteration,8,37,0.102081,4.943449
[MO833] Paramount Iteration,12,37,0.102059,4.943434
[MO833] Paramount Iteration,4,37,0.102061,4.943262
[MO833] Paramount Iteration,11,37,0.102020,4.943531
[MO833] Paramount Iteration,3,37,0.102062,4.943459
[MO833] Paramount Iteration,7,37,0.102093,4.943516
[MO833] Paramount Iteration,9,37,0.102050,4.943426
[MO833] Paramount Iteration,13,37,0.102112,4.943437
[MO833] Paramount Iteration,5,37,0.102116,4.943277
[MO833] Paramount Iteration,14,37,0.102135,4.939925
[MO833] Paramount Iteration,15,37,0.102087,4.939924
[MO833] Paramount Iteration,0,38,0.182140,5.125706
[MO833] Paramount Iteration,12,38,0.182058,5.125554
[MO833] Paramount Iteration,4,38,0.182084,5.125403
[MO833] Paramount Iteration,1,38,0.181902,5.125712
[MO833] Paramount Iteration,10,38,0.182145,5.125695
[MO833] Paramount Iteration,2,38,0.182131,5.125656
[MO833] Paramount Iteration,6,38,0.182113,5.125650
[MO833] Paramount Iteration,8,38,0.182125,5.125596
[MO833] Paramount Iteration,13,38,0.182111,5.125557
[MO833] Paramount Iteration,5,38,0.182124,5.125408
[MO833] Paramount Iteration,14,38,0.182104,5.122039
[MO833] Paramount Iteration,11,38,0.182097,5.125687
[MO833] Paramount Iteration,3,38,0.182165,5.125647
[MO833] Paramount Iteration,7,38,0.182072,5.125643
[MO833] Paramount Iteration,9,38,0.182091,5.125569
[MO833] Paramount Iteration,15,38,0.182060,5.122038
[MO833] Paramount Iteration,0,39,0.101358,5.227146
[MO833] Paramount Iteration,1,39,0.101432,5.227154
[MO833] Paramount Iteration,10,39,0.101418,5.227123
[MO833] Paramount Iteration,2,39,0.101366,5.227076
[MO833] Paramount Iteration,6,39,0.101440,5.227106
[MO833] Paramount Iteration,8,39,0.101417,5.227037
[MO833] Paramount Iteration,12,39,0.101422,5.227037
[MO833] Paramount Iteration,4,39,0.101418,5.226871
[MO833] Paramount Iteration,14,39,0.101445,5.223493
[MO833] Paramount Iteration,11,39,0.101373,5.227115
[MO833] Paramount Iteration,3,39,0.101397,5.227067
[MO833] Paramount Iteration,7,39,0.101398,5.227096
[MO833] Paramount Iteration,9,39,0.101381,5.227010
[MO833] Paramount Iteration,13,39,0.101474,5.227041
[MO833] Paramount Iteration,5,39,0.101465,5.226882
[MO833] Paramount Iteration,15,39,0.101401,5.223493
[MO833] Paramount Iteration,6,40,0.101261,5.328378
[MO833] Paramount Iteration,12,40,0.101200,5.328299
[MO833] Paramount Iteration,4,40,0.101205,5.328133
[MO833] Paramount Iteration,14,40,0.101282,5.324784
[MO833] Paramount Iteration,0,40,0.101248,5.328455
[MO833] Paramount Iteration,10,40,0.101313,5.328446
[MO833] Paramount Iteration,3,40,0.101281,5.328371
[MO833] Paramount Iteration,7,40,0.101220,5.328371
[MO833] Paramount Iteration,8,40,0.101295,5.328354
[MO833] Paramount Iteration,13,40,0.101253,5.328302
[MO833] Paramount Iteration,5,40,0.101256,5.328145
[MO833] Paramount Iteration,15,40,0.101240,5.324782
[MO833] Paramount Iteration,1,40,0.101296,5.328457
[MO833] Paramount Iteration,11,40,0.101262,5.328435
[MO833] Paramount Iteration,2,40,0.101252,5.328384
[MO833] Paramount Iteration,9,40,0.101262,5.328328
[MO833] Paramount Iteration,0,41,0.181639,5.510185
[MO833] Paramount Iteration,1,41,0.181723,5.510195
[MO833] Paramount Iteration,10,41,0.181723,5.510177
[MO833] Paramount Iteration,2,41,0.181659,5.510106
[MO833] Paramount Iteration,6,41,0.181760,5.510149
[MO833] Paramount Iteration,8,41,0.181709,5.510085
[MO833] Paramount Iteration,12,41,0.181710,5.510073
[MO833] Paramount Iteration,4,41,0.181712,5.509901
[MO833] Paramount Iteration,11,41,0.181673,5.510167
[MO833] Paramount Iteration,3,41,0.181704,5.510096
[MO833] Paramount Iteration,7,41,0.181715,5.510137
[MO833] Paramount Iteration,9,41,0.181673,5.510058
[MO833] Paramount Iteration,13,41,0.181767,5.510078
[MO833] Paramount Iteration,5,41,0.181764,5.509915
[MO833] Paramount Iteration,14,41,0.181767,5.506561
[MO833] Paramount Iteration,15,41,0.181726,5.506561
[MO833] Paramount Iteration,4,42,0.100964,5.610922
[MO833] Paramount Iteration,0,42,0.100997,5.611248
[MO833] Paramount Iteration,10,42,0.101045,5.611230
[MO833] Paramount Iteration,3,42,0.101035,5.611155
[MO833] Paramount Iteration,6,42,0.101000,5.611164
[MO833] Paramount Iteration,8,42,0.101033,5.611141
[MO833] Paramount Iteration,12,42,0.100983,5.611112
[MO833] Paramount Iteration,5,42,0.101008,5.610929
[MO833] Paramount Iteration,14,42,0.100997,5.607568
[MO833] Paramount Iteration,1,42,0.101045,5.611251
[MO833] Paramount Iteration,11,42,0.100998,5.611220
[MO833] Paramount Iteration,2,42,0.101005,5.611167
[MO833] Paramount Iteration,7,42,0.100968,5.611164
[MO833] Paramount Iteration,9,42,0.100979,5.611115
[MO833] Paramount Iteration,13,42,0.101031,5.611115
[MO833] Paramount Iteration,15,42,0.100954,5.607567
[MO833] Paramount Iteration,0,43,0.101676,5.713043
[MO833] Paramount Iteration,10,43,0.101747,5.712985
[MO833] Paramount Iteration,2,43,0.101706,5.712928
[MO833] Paramount Iteration,8,43,0.101752,5.712917
[MO833] Paramount Iteration,14,43,0.101778,5.709357
[MO833] Paramount Iteration,1,43,0.101801,5.713067
[MO833] Paramount Iteration,11,43,0.101698,5.712976
[MO833] Paramount Iteration,3,43,0.101739,5.712915
[MO833] Paramount Iteration,6,43,0.101786,5.712972
[MO833] Paramount Iteration,9,43,0.101767,5.712950
[MO833] Paramount Iteration,12,43,0.101736,5.712906
[MO833] Paramount Iteration,4,43,0.101784,5.712764
[MO833] Paramount Iteration,15,43,0.101732,5.709355
[MO833] Paramount Iteration,7,43,0.101743,5.712963
[MO833] Paramount Iteration,13,43,0.101791,5.712913
[MO833] Paramount Iteration,5,43,0.101832,5.712771
[MO833] Paramount Iteration,0,44,0.182590,5.895720
[MO833] Paramount Iteration,4,44,0.182580,5.895403
[MO833] Paramount Iteration,1,44,0.182650,5.895724
[MO833] Paramount Iteration,10,44,0.182704,5.895697
[MO833] Paramount Iteration,2,44,0.182653,5.895631
[MO833] Paramount Iteration,6,44,0.182663,5.895647
[MO833] Paramount Iteration,8,44,0.182666,5.895608
[MO833] Paramount Iteration,12,44,0.182607,5.895575
[MO833] Paramount Iteration,5,44,0.182635,5.895418
[MO833] Paramount Iteration,14,44,0.182691,5.892058
[MO833] Paramount Iteration,11,44,0.182656,5.895687
[MO833] Paramount Iteration,3,44,0.182682,5.895620
[MO833] Paramount Iteration,7,44,0.182627,5.895645
[MO833] Paramount Iteration,9,44,0.182605,5.895583
[MO833] Paramount Iteration,13,44,0.182662,5.895581
[MO833] Paramount Iteration,15,44,0.182649,5.892057
[MO833] Paramount Iteration,0,45,0.102006,5.997817
[MO833] Paramount Iteration,12,45,0.102027,5.997661
[MO833] Paramount Iteration,4,45,0.102036,5.997497
[MO833] Paramount Iteration,1,45,0.102087,5.997824
[MO833] Paramount Iteration,10,45,0.102101,5.997808
[MO833] Paramount Iteration,2,45,0.102056,5.997742
[MO833] Paramount Iteration,6,45,0.102085,5.997754
[MO833] Paramount Iteration,8,45,0.102082,5.997712
[MO833] Paramount Iteration,13,45,0.102077,5.997664
[MO833] Paramount Iteration,5,45,0.102083,5.997507
[MO833] Paramount Iteration,14,45,0.102084,5.994152
[MO833] Paramount Iteration,11,45,0.102052,5.997798
[MO833] Paramount Iteration,3,45,0.102086,5.997729
[MO833] Paramount Iteration,7,45,0.102046,5.997746
[MO833] Paramount Iteration,9,45,0.102049,5.997687
[MO833] Paramount Iteration,15,45,0.102040,5.994150
[MO833] Paramount Iteration,0,46,0.101864,6.099707
[MO833] Paramount Iteration,12,46,0.101817,6.099539
[MO833] Paramount Iteration,1,46,0.101611,6.099713
[MO833] Paramount Iteration,10,46,0.101865,6.099682
[MO833] Paramount Iteration,2,46,0.101830,6.099625
[MO833] Paramount Iteration,6,46,0.101884,6.099652
[MO833] Paramount Iteration,8,46,0.101854,6.099589
[MO833] Paramount Iteration,13,46,0.101874,6.099547
[MO833] Paramount Iteration,4,46,0.101853,6.099408
[MO833] Paramount Iteration,14,46,0.101872,6.096032
[MO833] Paramount Iteration,11,46,0.101815,6.099673
[MO833] Paramount Iteration,3,46,0.101863,6.099617
[MO833] Paramount Iteration,7,46,0.101839,6.099642
[MO833] Paramount Iteration,9,46,0.101820,6.099563
[MO833] Paramount Iteration,5,46,0.101899,6.099414
[MO833] Paramount Iteration,15,46,0.101825,6.096027
[MO833] Paramount Iteration,4,47,0.183210,6.282676
[MO833] Paramount Iteration,0,47,0.183217,6.283015
[MO833] Paramount Iteration,2,47,0.183269,6.282956
[MO833] Paramount Iteration,6,47,0.183272,6.282933
[MO833] Paramount Iteration,8,47,0.183299,6.282911
[MO833] Paramount Iteration,12,47,0.183247,6.282847
[MO833] Paramount Iteration,5,47,0.183265,6.282691
[MO833] Paramount Iteration,14,47,0.183304,6.279344
[MO833] Paramount Iteration,1,47,0.183300,6.283023
[MO833] Paramount Iteration,10,47,0.183336,6.283028
[MO833] Paramount Iteration,3,47,0.183300,6.282943
[MO833] Paramount Iteration,7,47,0.183226,6.282919
[MO833] Paramount Iteration,9,47,0.183264,6.282884
[MO833] Paramount Iteration,13,47,0.183298,6.282852
[MO833] Paramount Iteration,15,47,0.183259,6.279344
[MO833] Paramount Iteration,11,47,0.183289,6.283019
[MO833] Paramount Iteration,0,48,0.101780,6.384877
[MO833] Paramount Iteration,1,48,0.101852,6.384885
[MO833] Paramount Iteration,10,48,0.101814,6.384851
[MO833] Paramount Iteration,2,48,0.101777,6.384783
[MO833] Paramount Iteration,6,48,0.101875,6.384819
[MO833] Paramount Iteration,8,48,0.101836,6.384771
[MO833] Paramount Iteration,12,48,0.101845,6.384750
[MO833] Paramount Iteration,4,48,0.101851,6.384580
[MO833] Paramount Iteration,14,48,0.101883,6.381237
[MO833] Paramount Iteration,11,48,0.101764,6.384841
[MO833] Paramount Iteration,3,48,0.101803,6.384768
[MO833] Paramount Iteration,7,48,0.101841,6.384821
[MO833] Paramount Iteration,9,48,0.101801,6.384745
[MO833] Paramount Iteration,13,48,0.101895,6.384753
[MO833] Paramount Iteration,5,48,0.101895,6.384592
[MO833] Paramount Iteration,15,48,0.101841,6.381235
[MO833] Paramount Iteration,0,49,0.101731,6.486673
[MO833] Paramount Iteration,1,49,0.101787,6.486685
[MO833] Paramount Iteration,10,49,0.101793,6.486654
[MO833] Paramount Iteration,2,49,0.101759,6.486593
[MO833] Paramount Iteration,6,49,0.101781,6.486626
[MO833] Paramount Iteration,8,49,0.101772,6.486565
[MO833] Paramount Iteration,12,49,0.101750,6.486560
[MO833] Paramount Iteration,4,49,0.101750,6.486388
[MO833] Paramount Iteration,14,49,0.101799,6.483046
[MO833] Paramount Iteration,11,49,0.101721,6.486644
[MO833] Paramount Iteration,3,49,0.101787,6.486581
[MO833] Paramount Iteration,7,49,0.101733,6.486614
[MO833] Paramount Iteration,9,49,0.101739,6.486539
[MO833] Paramount Iteration,13,49,0.101806,6.486566
[MO833] Paramount Iteration,5,49,0.101805,6.486404
[MO833] Paramount Iteration,15,49,0.101753,6.483044
[MO833] Paramount Iteration,1,50,0.201758,6.688453
[MO833] Paramount Iteration,2,50,0.201773,6.688423
[MO833] Paramount Iteration,3,50,0.201994,6.688598
[MO833] Paramount Iteration,4,50,0.202134,6.688581
[MO833] Paramount Iteration,5,50,0.202333,6.688743
[MO833] Paramount Iteration,6,50,0.202472,6.689110
[MO833] Paramount Iteration,7,50,0.202598,6.689267
[MO833] Paramount Iteration,8,50,0.202820,6.689406
[MO833] Paramount Iteration,9,50,0.202961,6.689543
[MO833] Paramount Iteration,10,50,0.203137,6.689800
[MO833] Paramount Iteration,11,50,0.203253,6.689956
[MO833] Paramount Iteration,12,50,0.203397,6.690018
[MO833] Paramount Iteration,13,50,0.203619,6.690192
[MO833] Paramount Iteration,14,50,0.203763,6.686819
[MO833] Paramount Iteration,15,50,0.203890,6.686993
[MO833] Paramount Iteration,0,50,0.204053,6.690794
[MO833] Paramount Iteration,0,51,0.101832,6.792665
[MO833] Paramount Iteration,1,51,0.104132,6.792675
[MO833] Paramount Iteration,10,51,0.102801,6.792622
[MO833] Paramount Iteration,2,51,0.104092,6.792577
[MO833] Paramount Iteration,8,51,0.103105,6.792533
[MO833] Paramount Iteration,12,51,0.102470,6.792534
[MO833] Paramount Iteration,4,51,0.103741,6.792370
[MO833] Paramount Iteration,14,51,0.102171,6.789006
[MO833] Paramount Iteration,11,51,0.102623,6.792612
[MO833] Paramount Iteration,3,51,0.103960,6.792569
[MO833] Paramount Iteration,6,51,0.103488,6.792615
[MO833] Paramount Iteration,9,51,0.102945,6.792508
[MO833] Paramount Iteration,13,51,0.102333,6.792537
[MO833] Paramount Iteration,5,51,0.103625,6.792380
[MO833] Paramount Iteration,15,51,0.101987,6.789005
[MO833] Paramount Iteration,7,51,0.103307,6.792605
[MO833] Paramount Iteration,0,52,0.101255,6.893978
[MO833] Paramount Iteration,1,52,0.101302,6.893984
[MO833] Paramount Iteration,10,52,0.101295,6.893924
[MO833] Paramount Iteration,2,52,0.101255,6.893888
[MO833] Paramount Iteration,8,52,0.101286,6.893844
[MO833] Paramount Iteration,12,52,0.101221,6.893816
[MO833] Paramount Iteration,4,52,0.101257,6.893682
[MO833] Paramount Iteration,14,52,0.101317,6.890335
[MO833] Paramount Iteration,11,52,0.101250,6.893917
[MO833] Paramount Iteration,3,52,0.101288,6.893880
[MO833] Paramount Iteration,6,52,0.101331,6.893956
[MO833] Paramount Iteration,9,52,0.101250,6.893818
[MO833] Paramount Iteration,13,52,0.101278,6.893822
[MO833] Paramount Iteration,5,52,0.101302,6.893689
[MO833] Paramount Iteration,15,52,0.101269,6.890329
[MO833] Paramount Iteration,7,52,0.101286,6.893944
[MO833] Paramount Iteration,0,53,0.182635,7.076693
[MO833] Paramount Iteration,10,53,0.182668,7.076608
[MO833] Paramount Iteration,2,53,0.182632,7.076578
[MO833] Paramount Iteration,8,53,0.182682,7.076550
[MO833] Paramount Iteration,12,53,0.182664,7.076538
[MO833] Paramount Iteration,1,53,0.182704,7.076699
[MO833] Paramount Iteration,11,53,0.182617,7.076595
[MO833] Paramount Iteration,3,53,0.182665,7.076569
[MO833] Paramount Iteration,6,53,0.182677,7.076641
[MO833] Paramount Iteration,9,53,0.182650,7.076523
[MO833] Paramount Iteration,13,53,0.182717,7.076546
[MO833] Paramount Iteration,4,53,0.182657,7.076395
[MO833] Paramount Iteration,14,53,0.182681,7.073023
[MO833] Paramount Iteration,7,53,0.182622,7.076631
[MO833] Paramount Iteration,5,53,0.182703,7.076401
[MO833] Paramount Iteration,15,53,0.182613,7.073009
[MO833] Paramount Iteration,0,54,0.101913,7.178689
[MO833] Paramount Iteration,1,54,0.101987,7.178696
[MO833] Paramount Iteration,4,54,0.101934,7.178386
[MO833] Paramount Iteration,10,54,0.102038,7.178660
[MO833] Paramount Iteration,2,54,0.101961,7.178595
[MO833] Paramount Iteration,6,54,0.101983,7.178634
[MO833] Paramount Iteration,8,54,0.102047,7.178622
[MO833] Paramount Iteration,12,54,0.101962,7.178558
[MO833] Paramount Iteration,5,54,0.101983,7.178396
[MO833] Paramount Iteration,14,54,0.102025,7.175056
[MO833] Paramount Iteration,11,54,0.101997,7.178650
[MO833] Paramount Iteration,3,54,0.101988,7.178579
[MO833] Paramount Iteration,7,54,0.101942,7.178625
[MO833] Paramount Iteration,9,54,0.102015,7.178598
[MO833] Paramount Iteration,13,54,0.102009,7.178561
[MO833] Paramount Iteration,15,54,0.101983,7.175055
[MO833] Paramount Iteration,3,55,0.108368,7.286974
[MO833] Paramount Iteration,6,55,0.108339,7.286988
[MO833] Paramount Iteration,8,55,0.108320,7.286967
[MO833] Paramount Iteration,12,55,0.108278,7.286905
[MO833] Paramount Iteration,4,55,0.108306,7.286752
[MO833] Paramount Iteration,14,55,0.108333,7.283400
[MO833] Paramount Iteration,0,55,0.108340,7.287093
[MO833] Paramount Iteration,10,55,0.108383,7.287051
[MO833] Paramount Iteration,2,55,0.108345,7.286991
[MO833] Paramount Iteration,7,55,0.108294,7.286976
[MO833] Paramount Iteration,9,55,0.108286,7.286942
[MO833] Paramount Iteration,13,55,0.108340,7.286909
[MO833] Paramount Iteration,5,55,0.108352,7.286758
[MO833] Paramount Iteration,15,55,0.108285,7.283397
[MO833] Paramount Iteration,1,55,0.108395,7.287100
[MO833] Paramount Iteration,11,55,0.108334,7.287041
[MO833] Paramount Iteration,0,56,0.187489,7.474692
[MO833] Paramount Iteration,6,56,0.187618,7.474618
[MO833] Paramount Iteration,8,56,0.187555,7.474579
[MO833] Paramount Iteration,12,56,0.187549,7.474514
[MO833] Paramount Iteration,4,56,0.187539,7.474350
[MO833] Paramount Iteration,14,56,0.187617,7.471030
[MO833] Paramount Iteration,1,56,0.187603,7.474713
[MO833] Paramount Iteration,10,56,0.187624,7.474684
[MO833] Paramount Iteration,2,56,0.187563,7.474619
[MO833] Paramount Iteration,7,56,0.187574,7.474608
[MO833] Paramount Iteration,9,56,0.187602,7.474554
[MO833] Paramount Iteration,13,56,0.187601,7.474517
[MO833] Paramount Iteration,5,56,0.187591,7.474362
[MO833] Paramount Iteration,15,56,0.187552,7.471028
[MO833] Paramount Iteration,11,56,0.187576,7.474674
[MO833] Paramount Iteration,3,56,0.187609,7.474605
[MO833] Paramount Iteration,0,57,0.103494,7.578240
[MO833] Paramount Iteration,1,57,0.103295,7.578259
[MO833] Paramount Iteration,10,57,0.103499,7.578192
[MO833] Paramount Iteration,2,57,0.103464,7.578135
[MO833] Paramount Iteration,6,57,0.103549,7.578177
[MO833] Paramount Iteration,8,57,0.103489,7.578127
[MO833] Paramount Iteration,12,57,0.103544,7.578116
[MO833] Paramount Iteration,4,57,0.103537,7.577945
[MO833] Paramount Iteration,14,57,0.103561,7.574603
[MO833] Paramount Iteration,11,57,0.103449,7.578182
[MO833] Paramount Iteration,3,57,0.103498,7.578127
[MO833] Paramount Iteration,7,57,0.103507,7.578170
[MO833] Paramount Iteration,9,57,0.103554,7.578119
[MO833] Paramount Iteration,13,57,0.103595,7.578119
[MO833] Paramount Iteration,5,57,0.103590,7.577959
[MO833] Paramount Iteration,15,57,0.103491,7.574601
[MO833] Paramount Iteration,0,58,0.103091,7.681408
[MO833] Paramount Iteration,2,58,0.103109,7.681302
[MO833] Paramount Iteration,6,58,0.103118,7.681307
[MO833] Paramount Iteration,8,58,0.103072,7.681273
[MO833] Paramount Iteration,12,58,0.103041,7.681218
[MO833] Paramount Iteration,4,58,0.103061,7.681065
[MO833] Paramount Iteration,1,58,0.103145,7.681414
[MO833] Paramount Iteration,10,58,0.103162,7.681362
[MO833] Paramount Iteration,3,58,0.103141,7.681290
[MO833] Paramount Iteration,7,58,0.103072,7.681294
[MO833] Paramount Iteration,9,58,0.103117,7.681246
[MO833] Paramount Iteration,13,58,0.103094,7.681221
[MO833] Paramount Iteration,5,58,0.103105,7.681071
[MO833] Paramount Iteration,14,58,0.103117,7.677731
[MO833] Paramount Iteration,11,58,0.103116,7.681353
[MO833] Paramount Iteration,15,58,0.103069,7.677733
[MO833] Paramount Iteration,0,59,0.184778,7.866282
[MO833] Paramount Iteration,10,59,0.184834,7.866208
[MO833] Paramount Iteration,2,59,0.184814,7.866173
[MO833] Paramount Iteration,6,59,0.184871,7.866191
[MO833] Paramount Iteration,8,59,0.184802,7.866131
[MO833] Paramount Iteration,12,59,0.184849,7.866128
[MO833] Paramount Iteration,4,59,0.184807,7.865956
[MO833] Paramount Iteration,14,59,0.184864,7.862615
[MO833] Paramount Iteration,1,59,0.184862,7.866289
[MO833] Paramount Iteration,11,59,0.184782,7.866197
[MO833] Paramount Iteration,3,59,0.184851,7.866164
[MO833] Paramount Iteration,7,59,0.184831,7.866183
[MO833] Paramount Iteration,9,59,0.184862,7.866121
[MO833] Paramount Iteration,13,59,0.184902,7.866131
[MO833] Paramount Iteration,5,59,0.184883,7.865966
[MO833] Paramount Iteration,15,59,0.184809,7.862615
[MO833] Paramount Iteration,2,60,0.154122,8.020350
[MO833] Paramount Iteration,6,60,0.154165,8.020368
[MO833] Paramount Iteration,9,60,0.154174,8.020304
[MO833] Paramount Iteration,13,60,0.154148,8.020287
[MO833] Paramount Iteration,5,60,0.154202,8.020175
[MO833] Paramount Iteration,14,60,0.154160,8.016788
[MO833] Paramount Iteration,10,60,0.154261,8.020480
[MO833] Paramount Iteration,3,60,0.154285,8.020471
[MO833] Paramount Iteration,7,60,0.154259,8.020494
[MO833] Paramount Iteration,12,60,0.154296,8.020485
[MO833] Paramount Iteration,11,60,0.154242,8.020500
[MO833] Paramount Iteration,8,60,0.154328,8.020530
[MO833] Paramount Iteration,4,60,0.154355,8.020369
[MO833] Paramount Iteration,15,60,0.154300,8.016977
[MO833] Paramount Iteration,0,60,0.154265,8.020771
[MO833] Paramount Iteration,1,60,0.154546,8.020847
[MO833] Paramount Iteration,12,61,0.104011,8.124522
[MO833] Paramount Iteration,4,61,0.103955,8.124353
[MO833] Paramount Iteration,0,61,0.103870,8.124705
[MO833] Paramount Iteration,10,61,0.104148,8.124684
[MO833] Paramount Iteration,2,61,0.104198,8.124621
[MO833] Paramount Iteration,6,61,0.104227,8.124615
[MO833] Paramount Iteration,8,61,0.104004,8.124581
[MO833] Paramount Iteration,13,61,0.104213,8.124525
[MO833] Paramount Iteration,5,61,0.104165,8.124367
[MO833] Paramount Iteration,14,61,0.104232,8.121048
[MO833] Paramount Iteration,1,61,0.103815,8.124713
[MO833] Paramount Iteration,11,61,0.104169,8.124675
[MO833] Paramount Iteration,3,61,0.104122,8.124608
[MO833] Paramount Iteration,7,61,0.104083,8.124601
[MO833] Paramount Iteration,9,61,0.104218,8.124554
[MO833] Paramount Iteration,15,61,0.104043,8.121048
[MO833] Paramount Iteration,0,62,0.190764,8.315579
[MO833] Paramount Iteration,3,62,0.190808,8.315440
[MO833] Paramount Iteration,1,62,0.190861,8.315591
[MO833] Paramount Iteration,10,62,0.190783,8.315513
[MO833] Paramount Iteration,2,62,0.190785,8.315458
[MO833] Paramount Iteration,6,62,0.190866,8.315492
[MO833] Paramount Iteration,8,62,0.190809,8.315452
[MO833] Paramount Iteration,12,62,0.190856,8.315442
[MO833] Paramount Iteration,4,62,0.190853,8.315269
[MO833] Paramount Iteration,14,62,0.190851,8.311916
[MO833] Paramount Iteration,11,62,0.190810,8.315507
[MO833] Paramount Iteration,7,62,0.190823,8.315484
[MO833] Paramount Iteration,9,62,0.190857,8.315428
[MO833] Paramount Iteration,13,62,0.190912,8.315447
[MO833] Paramount Iteration,5,62,0.190908,8.315283
[MO833] Paramount Iteration,15,62,0.190794,8.311915
[MO833] Paramount Iteration,0,63,0.124992,8.440645
[MO833] Paramount Iteration,1,63,0.125046,8.440648
[MO833] Paramount Iteration,10,63,0.125030,8.440593
[MO833] Paramount Iteration,3,63,0.125058,8.440525
[MO833] Paramount Iteration,6,63,0.125044,8.440549
[MO833] Paramount Iteration,8,63,0.125002,8.440509
[MO833] Paramount Iteration,12,63,0.124991,8.440496
[MO833] Paramount Iteration,4,63,0.124996,8.440326
[MO833] Paramount Iteration,14,63,0.125049,8.436978
[MO833] Paramount Iteration,11,63,0.125054,8.440582
[MO833] Paramount Iteration,2,63,0.125013,8.440539
[MO833] Paramount Iteration,7,63,0.125002,8.440541
[MO833] Paramount Iteration,9,63,0.125047,8.440483
[MO833] Paramount Iteration,13,63,0.125043,8.440499
[MO833] Paramount Iteration,5,63,0.125049,8.440340
[MO833] Paramount Iteration,15,63,0.125002,8.436977
[MO833] Paramount Iteration,0,64,0.104378,8.545047
[MO833] Paramount Iteration,3,64,0.104385,8.544934
[MO833] Paramount Iteration,6,64,0.104376,8.544938
[MO833] Paramount Iteration,8,64,0.104349,8.544911
[MO833] Paramount Iteration,12,64,0.104296,8.544853
[MO833] Paramount Iteration,4,64,0.104305,8.544693
[MO833] Paramount Iteration,14,64,0.104374,8.541364
[MO833] Paramount Iteration,1,64,0.104150,8.545050
[MO833] Paramount Iteration,10,64,0.104366,8.545006
[MO833] Paramount Iteration,2,64,0.104349,8.544952
[MO833] Paramount Iteration,7,64,0.104326,8.544922
[MO833] Paramount Iteration,9,64,0.104393,8.544885
[MO833] Paramount Iteration,13,64,0.104350,8.544858
[MO833] Paramount Iteration,5,64,0.104356,8.544703
[MO833] Paramount Iteration,15,64,0.104331,8.541363
[MO833] Paramount Iteration,11,64,0.104393,8.544999
[MO833] Paramount Iteration,10,65,0.260642,8.805697
[MO833] Paramount Iteration,8,65,0.260662,8.805627
[MO833] Paramount Iteration,12,65,0.260691,8.805603
[MO833] Paramount Iteration,0,65,0.260721,8.805792
[MO833] Paramount Iteration,11,65,0.260672,8.805692
[MO833] Paramount Iteration,2,65,0.260650,8.805672
[MO833] Paramount Iteration,6,65,0.260774,8.805722
[MO833] Paramount Iteration,9,65,0.260706,8.805601
[MO833] Paramount Iteration,13,65,0.260745,8.805610
[MO833] Paramount Iteration,4,65,0.260720,8.805473
[MO833] Paramount Iteration,14,65,0.260744,8.802124
[MO833] Paramount Iteration,1,65,0.260484,8.805800
[MO833] Paramount Iteration,3,65,0.260705,8.805664
[MO833] Paramount Iteration,7,65,0.260729,8.805712
[MO833] Paramount Iteration,5,65,0.260767,8.805479
[MO833] Paramount Iteration,15,65,0.260682,8.802117
[MO833] Paramount Iteration,0,66,0.150059,8.955965
[MO833] Paramount Iteration,1,66,0.150157,8.955970
[MO833] Paramount Iteration,10,66,0.150151,8.955901
[MO833] Paramount Iteration,2,66,0.150115,8.955844
[MO833] Paramount Iteration,6,66,0.150165,8.955897
[MO833] Paramount Iteration,8,66,0.150142,8.955823
[MO833] Paramount Iteration,12,66,0.150144,8.955814
[MO833] Paramount Iteration,4,66,0.150109,8.955644
[MO833] Paramount Iteration,11,66,0.150177,8.955892
[MO833] Paramount Iteration,3,66,0.150144,8.955831
[MO833] Paramount Iteration,7,66,0.150122,8.955886
[MO833] Paramount Iteration,9,66,0.150185,8.955796
[MO833] Paramount Iteration,13,66,0.150201,8.955819
[MO833] Paramount Iteration,5,66,0.150166,8.955657
[MO833] Paramount Iteration,14,66,0.150200,8.952332
[MO833] Paramount Iteration,15,66,0.150152,8.952332
[MO833] Paramount Iteration,0,67,0.177854,9.133886
[MO833] Paramount Iteration,1,67,0.177907,9.133891
[MO833] Paramount Iteration,10,67,0.177858,9.133810
[MO833] Paramount Iteration,2,67,0.177856,9.133759
[MO833] Paramount Iteration,6,67,0.177881,9.133795
[MO833] Paramount Iteration,8,67,0.177875,9.133751
[MO833] Paramount Iteration,12,67,0.177855,9.133728
[MO833] Paramount Iteration,4,67,0.177853,9.133557
[MO833] Paramount Iteration,14,67,0.177883,9.130229
[MO833] Paramount Iteration,11,67,0.177887,9.133802
[MO833] Paramount Iteration,3,67,0.177883,9.133744
[MO833] Paramount Iteration,7,67,0.177833,9.133782
[MO833] Paramount Iteration,9,67,0.177917,9.133724
[MO833] Paramount Iteration,13,67,0.177904,9.133731
[MO833] Paramount Iteration,5,67,0.177905,9.133569
[MO833] Paramount Iteration,15,67,0.177842,9.130230
[MO833] Paramount Iteration,10,68,0.205312,9.339170
[MO833] Paramount Iteration,2,68,0.205340,9.339154
[MO833] Paramount Iteration,6,68,0.205342,9.339152
[MO833] Paramount Iteration,8,68,0.205314,9.339122
[MO833] Paramount Iteration,12,68,0.205271,9.339064
[MO833] Paramount Iteration,4,68,0.205326,9.338939
[MO833] Paramount Iteration,14,68,0.205316,9.335557
[MO833] Paramount Iteration,0,68,0.205344,9.339308
[MO833] Paramount Iteration,11,68,0.205336,9.339159
[MO833] Paramount Iteration,3,68,0.205376,9.339145
[MO833] Paramount Iteration,7,68,0.205295,9.339141
[MO833] Paramount Iteration,9,68,0.205361,9.339098
[MO833] Paramount Iteration,13,68,0.205335,9.339076
[MO833] Paramount Iteration,5,68,0.205367,9.338944
[MO833] Paramount Iteration,15,68,0.205261,9.335546
[MO833] Paramount Iteration,1,68,0.205609,9.339517
[MO833] Paramount Iteration,10,69,0.105744,9.444959
[MO833] Paramount Iteration,8,69,0.105710,9.444891
[MO833] Paramount Iteration,12,69,0.105747,9.444874
[MO833] Paramount Iteration,0,69,0.105660,9.445064
[MO833] Paramount Iteration,11,69,0.105765,9.444947
[MO833] Paramount Iteration,2,69,0.105728,9.444936
[MO833] Paramount Iteration,9,69,0.105754,9.444865
[MO833] Paramount Iteration,13,69,0.105797,9.444880
[MO833] Paramount Iteration,4,69,0.105746,9.444743
[MO833] Paramount Iteration,14,69,0.105827,9.441391
[MO833] Paramount Iteration,1,69,0.105520,9.445080
[MO833] Paramount Iteration,3,69,0.105761,9.444927
[MO833] Paramount Iteration,5,69,0.105792,9.444749
[MO833] Paramount Iteration,15,69,0.105784,9.441388
[MO833] Paramount Iteration,6,69,0.105929,9.445092
[MO833] Paramount Iteration,7,69,0.105886,9.445082
[MO833] Paramount Iteration,0,70,0.139679,9.584871
[MO833] Paramount Iteration,3,70,0.139770,9.584718
[MO833] Paramount Iteration,7,70,0.139601,9.584748
[MO833] Paramount Iteration,8,70,0.139762,9.584707
[MO833] Paramount Iteration,11,70,0.139781,9.584750
[MO833] Paramount Iteration,12,70,0.139759,9.584696
[MO833] Paramount Iteration,4,70,0.139745,9.584545
[MO833] Paramount Iteration,15,70,0.139736,9.581185
[MO833] Paramount Iteration,10,70,0.139894,9.584894
[MO833] Paramount Iteration,6,70,0.139808,9.584910
[MO833] Paramount Iteration,9,70,0.139965,9.584840
[MO833] Paramount Iteration,13,70,0.139936,9.584823
[MO833] Paramount Iteration,2,70,0.139927,9.584917
[MO833] Paramount Iteration,5,70,0.139941,9.584701
[MO833] Paramount Iteration,14,70,0.139931,9.581334
[MO833] Paramount Iteration,1,70,0.140178,9.585270
[MO833] Paramount Iteration,0,71,0.183628,9.768581
[MO833] Paramount Iteration,3,71,0.183693,9.768430
[MO833] Paramount Iteration,8,71,0.183677,9.768430
[MO833] Paramount Iteration,1,71,0.183281,9.768602
[MO833] Paramount Iteration,10,71,0.183591,9.768497
[MO833] Paramount Iteration,2,71,0.183504,9.768444
[MO833] Paramount Iteration,6,71,0.183556,9.768478
[MO833] Paramount Iteration,9,71,0.183552,9.768405
[MO833] Paramount Iteration,12,71,0.183675,9.768430
[MO833] Paramount Iteration,4,71,0.183654,9.768253
[MO833] Paramount Iteration,14,71,0.183566,9.764913
[MO833] Paramount Iteration,11,71,0.183681,9.768486
[MO833] Paramount Iteration,7,71,0.183675,9.768471
[MO833] Paramount Iteration,13,71,0.183598,9.768435
[MO833] Paramount Iteration,5,71,0.183544,9.768267
[MO833] Paramount Iteration,15,71,0.183674,9.764912
[MO833] Paramount Iteration,0,72,0.102789,9.871454
[MO833] Paramount Iteration,3,72,0.102848,9.871305
[MO833] Paramount Iteration,12,72,0.102786,9.871279
[MO833] Paramount Iteration,4,72,0.102797,9.871108
[MO833] Paramount Iteration,1,72,0.102854,9.871464
[MO833] Paramount Iteration,10,72,0.102863,9.871373
[MO833] Paramount Iteration,2,72,0.102806,9.871323
[MO833] Paramount Iteration,6,72,0.102863,9.871357
[MO833] Paramount Iteration,8,72,0.102831,9.871319
[MO833] Paramount Iteration,13,72,0.102844,9.871286
[MO833] Paramount Iteration,5,72,0.102849,9.871123
[MO833] Paramount Iteration,14,72,0.102877,9.867801
[MO833] Paramount Iteration,11,72,0.102814,9.871364
[MO833] Paramount Iteration,7,72,0.102821,9.871351
[MO833] Paramount Iteration,9,72,0.102879,9.871294
[MO833] Paramount Iteration,15,72,0.102832,9.867800
[MO833] Paramount Iteration,8,73,0.102799,9.974189
[MO833] Paramount Iteration,0,73,0.102906,9.974391
[MO833] Paramount Iteration,10,73,0.102887,9.974269
[MO833] Paramount Iteration,2,73,0.102863,9.974253
[MO833] Paramount Iteration,9,73,0.102866,9.974168
[MO833] Paramount Iteration,12,73,0.102844,9.974180
[MO833] Paramount Iteration,4,73,0.102898,9.974063
[MO833] Paramount Iteration,14,73,0.102894,9.970706
[MO833] Paramount Iteration,1,73,0.102679,9.974406
[MO833] Paramount Iteration,11,73,0.102836,9.974257
[MO833] Paramount Iteration,3,73,0.102913,9.974244
[MO833] Paramount Iteration,6,73,0.102928,9.974307
[MO833] Paramount Iteration,13,73,0.102902,9.974194
[MO833] Paramount Iteration,5,73,0.102937,9.974069
[MO833] Paramount Iteration,15,73,0.102843,9.970701
[MO833] Paramount Iteration,7,73,0.102887,9.974298
[MO833] Paramount Iteration,0,74,0.183281,10.157752
[MO833] Paramount Iteration,12,74,0.183304,10.157546
[MO833] Paramount Iteration,4,74,0.183265,10.157386
[MO833] Paramount Iteration,1,74,0.183346,10.157759
[MO833] Paramount Iteration,10,74,0.183386,10.157669
[MO833] Paramount Iteration,2,74,0.183325,10.157631
[MO833] Paramount Iteration,6,74,0.183316,10.157635
[MO833] Paramount Iteration,8,74,0.183343,10.157590
[MO833] Paramount Iteration,13,74,0.183354,10.157555
[MO833] Paramount Iteration,5,74,0.183312,10.157392
[MO833] Paramount Iteration,14,74,0.183359,10.154072
[MO833] Paramount Iteration,11,74,0.183337,10.157659
[MO833] Paramount Iteration,3,74,0.183356,10.157622
[MO833] Paramount Iteration,7,74,0.183277,10.157628
[MO833] Paramount Iteration,9,74,0.183386,10.157563
[MO833] Paramount Iteration,15,74,0.183317,10.154072
[MO833] Paramount Iteration,0,75,0.102602,10.260464
[MO833] Paramount Iteration,1,75,0.102708,10.260476
[MO833] Paramount Iteration,10,75,0.102698,10.260376
[MO833] Paramount Iteration,2,75,0.102644,10.260329
[MO833] Paramount Iteration,6,75,0.102682,10.260373
[MO833] Paramount Iteration,8,75,0.102666,10.260312
[MO833] Paramount Iteration,12,75,0.102699,10.260308
[MO833] Paramount Iteration,4,75,0.102691,10.260133
[MO833] Paramount Iteration,14,75,0.102736,10.256819
[MO833] Paramount Iteration,11,75,0.102650,10.260366
[MO833] Paramount Iteration,3,75,0.102672,10.260319
[MO833] Paramount Iteration,7,75,0.102716,10.260364
[MO833] Paramount Iteration,9,75,0.102710,10.260286
[MO833] Paramount Iteration,13,75,0.102748,10.260310
[MO833] Paramount Iteration,5,75,0.102747,10.260149
[MO833] Paramount Iteration,15,75,0.102691,10.256818
[MO833] Paramount Iteration,0,76,0.102850,10.363401
[MO833] Paramount Iteration,1,76,0.102928,10.363415
[MO833] Paramount Iteration,10,76,0.102917,10.363304
[MO833] Paramount Iteration,2,76,0.102887,10.363269
[MO833] Paramount Iteration,6,76,0.102883,10.363316
[MO833] Paramount Iteration,8,76,0.102883,10.363250
[MO833] Paramount Iteration,12,76,0.102878,10.363247
[MO833] Paramount Iteration,4,76,0.102881,10.363076
[MO833] Paramount Iteration,14,76,0.102910,10.359739
[MO833] Paramount Iteration,11,76,0.102868,10.363295
[MO833] Paramount Iteration,3,76,0.102918,10.363260
[MO833] Paramount Iteration,7,76,0.102916,10.363307
[MO833] Paramount Iteration,9,76,0.102925,10.363223
[MO833] Paramount Iteration,13,76,0.102934,10.363255
[MO833] Paramount Iteration,5,76,0.102931,10.363087
[MO833] Paramount Iteration,15,76,0.102868,10.359739
[MO833] Paramount Iteration,8,77,0.183583,10.546886
[MO833] Paramount Iteration,12,77,0.183528,10.546840
[MO833] Paramount Iteration,0,77,0.183607,10.547076
[MO833] Paramount Iteration,10,77,0.183649,10.546963
[MO833] Paramount Iteration,2,77,0.183629,10.546954
[MO833] Paramount Iteration,6,77,0.183628,10.546957
[MO833] Paramount Iteration,9,77,0.183624,10.546859
[MO833] Paramount Iteration,13,77,0.183590,10.546853
[MO833] Paramount Iteration,4,77,0.183572,10.546711
[MO833] Paramount Iteration,14,77,0.183619,10.543369
[MO833] Paramount Iteration,1,77,0.183658,10.547082
[MO833] Paramount Iteration,11,77,0.183604,10.546956
[MO833] Paramount Iteration,3,77,0.183663,10.546946
[MO833] Paramount Iteration,7,77,0.183586,10.546947
[MO833] Paramount Iteration,5,77,0.183618,10.546717
[MO833] Paramount Iteration,15,77,0.183569,10.543362
[MO833] Paramount Iteration,6,78,0.105362,10.652329
[MO833] Paramount Iteration,8,78,0.105344,10.652283
[MO833] Paramount Iteration,12,78,0.105334,10.652235
[MO833] Paramount Iteration,4,78,0.105314,10.652093
[MO833] Paramount Iteration,14,78,0.105381,10.648758
[MO833] Paramount Iteration,0,78,0.105290,10.652465
[MO833] Paramount Iteration,10,78,0.105378,10.652358
[MO833] Paramount Iteration,2,78,0.105318,10.652329
[MO833] Paramount Iteration,7,78,0.105320,10.652319
[MO833] Paramount Iteration,9,78,0.105386,10.652256
[MO833] Paramount Iteration,13,78,0.105381,10.652241
[MO833] Paramount Iteration,5,78,0.105371,10.652101
[MO833] Paramount Iteration,15,78,0.105337,10.648756
[MO833] Paramount Iteration,1,78,0.105378,10.652471
[MO833] Paramount Iteration,11,78,0.105333,10.652351
[MO833] Paramount Iteration,3,78,0.105351,10.652320
[MO833] Paramount Iteration,0,79,0.113645,10.766207
[MO833] Paramount Iteration,8,79,0.113683,10.766016
[MO833] Paramount Iteration,12,79,0.113694,10.765995
[MO833] Paramount Iteration,1,79,0.113730,10.766213
[MO833] Paramount Iteration,10,79,0.113708,10.766084
[MO833] Paramount Iteration,2,79,0.113681,10.766065
[MO833] Paramount Iteration,6,79,0.113773,10.766115
[MO833] Paramount Iteration,9,79,0.113726,10.765992
[MO833] Paramount Iteration,13,79,0.113755,10.766004
[MO833] Paramount Iteration,4,79,0.113711,10.765864
[MO833] Paramount Iteration,14,79,0.113763,10.762531
[MO833] Paramount Iteration,11,79,0.113658,10.766074
[MO833] Paramount Iteration,3,79,0.113714,10.766058
[MO833] Paramount Iteration,7,79,0.113731,10.766106
[MO833] Paramount Iteration,5,79,0.113758,10.765870
[MO833] Paramount Iteration,15,79,0.113710,10.762521
[MO833] Paramount Iteration,0,80,0.222037,10.988332
[MO833] Paramount Iteration,11,80,0.222059,10.988201
[MO833] Paramount Iteration,3,80,0.222081,10.988162
[MO833] Paramount Iteration,7,80,0.222049,10.988208
[MO833] Paramount Iteration,8,80,0.222096,10.988168
[MO833] Paramount Iteration,12,80,0.222092,10.988148
[MO833] Paramount Iteration,4,80,0.222073,10.987996
[MO833] Paramount Iteration,15,80,0.222080,10.984656
[MO833] Paramount Iteration,10,80,0.222231,10.988333
[MO833] Paramount Iteration,6,80,0.222245,10.988371
[MO833] Paramount Iteration,9,80,0.222298,10.988299
[MO833] Paramount Iteration,13,80,0.222269,10.988280
[MO833] Paramount Iteration,5,80,0.222257,10.988139
[MO833] Paramount Iteration,2,80,0.222244,10.988364
[MO833] Paramount Iteration,14,80,0.222265,10.984803
[MO833] Paramount Iteration,1,80,0.222522,10.988748
[MO833] Paramount Iteration,0,81,0.102848,11.091238
[MO833] Paramount Iteration,2,81,0.102709,11.091097
[MO833] Paramount Iteration,6,81,0.102698,11.091099
[MO833] Paramount Iteration,8,81,0.102866,11.091084
[MO833] Paramount Iteration,12,81,0.102829,11.091037
[MO833] Paramount Iteration,4,81,0.102815,11.090863
[MO833] Paramount Iteration,1,81,0.102451,11.091248
[MO833] Paramount Iteration,10,81,0.102795,11.091142
[MO833] Paramount Iteration,3,81,0.102900,11.091083
[MO833] Paramount Iteration,7,81,0.102828,11.091086
[MO833] Paramount Iteration,9,81,0.102728,11.091058
[MO833] Paramount Iteration,13,81,0.102748,11.091042
[MO833] Paramount Iteration,5,81,0.102722,11.090876
[MO833] Paramount Iteration,14,81,0.102742,11.087566
[MO833] Paramount Iteration,11,81,0.102877,11.091132
[MO833] Paramount Iteration,15,81,0.102859,11.087565
[MO833] Paramount Iteration,0,82,0.102884,11.194150
[MO833] Paramount Iteration,1,82,0.102670,11.194160
[MO833] Paramount Iteration,10,82,0.102895,11.194050
[MO833] Paramount Iteration,2,82,0.102855,11.194006
[MO833] Paramount Iteration,6,82,0.102927,11.194042
[MO833] Paramount Iteration,8,82,0.102882,11.193989
[MO833] Paramount Iteration,12,82,0.102889,11.193986
[MO833] Paramount Iteration,4,82,0.102887,11.193812
[MO833] Paramount Iteration,14,82,0.102911,11.190488
[MO833] Paramount Iteration,11,82,0.102845,11.194040
[MO833] Paramount Iteration,3,82,0.102885,11.193993
[MO833] Paramount Iteration,7,82,0.102888,11.194034
[MO833] Paramount Iteration,9,82,0.102850,11.193963
[MO833] Paramount Iteration,13,82,0.102940,11.193991
[MO833] Paramount Iteration,5,82,0.102940,11.193824
[MO833] Paramount Iteration,15,82,0.102868,11.190488
[MO833] Paramount Iteration,0,83,0.185156,11.379374
[MO833] Paramount Iteration,12,83,0.185105,11.379154
[MO833] Paramount Iteration,1,83,0.185203,11.379376
[MO833] Paramount Iteration,10,83,0.185219,11.379278
[MO833] Paramount Iteration,2,83,0.185166,11.379228
[MO833] Paramount Iteration,6,83,0.185161,11.379260
[MO833] Paramount Iteration,8,83,0.185190,11.379202
[MO833] Paramount Iteration,13,83,0.185160,11.379159
[MO833] Paramount Iteration,4,83,0.185151,11.379018
[MO833] Paramount Iteration,14,83,0.185182,11.375679
[MO833] Paramount Iteration,11,83,0.185172,11.379268
[MO833] Paramount Iteration,3,83,0.185196,11.379215
[MO833] Paramount Iteration,7,83,0.185193,11.379249
[MO833] Paramount Iteration,9,83,0.185158,11.379178
[MO833] Paramount Iteration,5,83,0.185187,11.379023
[MO833] Paramount Iteration,15,83,0.185135,11.375673
[MO833] Paramount Iteration,0,84,0.103654,11.483049
[MO833] Paramount Iteration,3,84,0.103632,11.482872
[MO833] Paramount Iteration,1,84,0.103453,11.483058
[MO833] Paramount Iteration,10,84,0.103651,11.482939
[MO833] Paramount Iteration,2,84,0.103607,11.482890
[MO833] Paramount Iteration,6,84,0.103606,11.482921
[MO833] Paramount Iteration,8,84,0.103631,11.482886
[MO833] Paramount Iteration,12,84,0.103646,11.482861
[MO833] Paramount Iteration,4,84,0.103621,11.482696
[MO833] Paramount Iteration,14,84,0.103691,11.479378
[MO833] Paramount Iteration,11,84,0.103602,11.482930
[MO833] Paramount Iteration,7,84,0.103637,11.482909
[MO833] Paramount Iteration,9,84,0.103677,11.482863
[MO833] Paramount Iteration,13,84,0.103698,11.482864
[MO833] Paramount Iteration,5,84,0.103670,11.482706
[MO833] Paramount Iteration,15,84,0.103652,11.479379
[MO833] Paramount Iteration,0,85,0.103384,11.586504
[MO833] Paramount Iteration,10,85,0.103421,11.586372
[MO833] Paramount Iteration,2,85,0.103382,11.586352
[MO833] Paramount Iteration,6,85,0.103408,11.586391
[MO833] Paramount Iteration,8,85,0.103377,11.586322
[MO833] Paramount Iteration,12,85,0.103386,11.586311
[MO833] Paramount Iteration,4,85,0.103394,11.586149
[MO833] Paramount Iteration,14,85,0.103431,11.582822
[MO833] Paramount Iteration,1,85,0.103460,11.586534
[MO833] Paramount Iteration,11,85,0.103372,11.586364
[MO833] Paramount Iteration,3,85,0.103445,11.586343
[MO833] Paramount Iteration,7,85,0.103439,11.586379
[MO833] Paramount Iteration,9,85,0.103423,11.586295
[MO833] Paramount Iteration,13,85,0.103440,11.586315
[MO833] Paramount Iteration,5,85,0.103444,11.586159
[MO833] Paramount Iteration,15,85,0.103389,11.582823
[MO833] Paramount Iteration,0,86,0.184947,11.771573
[MO833] Paramount Iteration,6,86,0.184972,11.771416
[MO833] Paramount Iteration,12,86,0.184967,11.771338
[MO833] Paramount Iteration,4,86,0.184969,11.771176
[MO833] Paramount Iteration,14,86,0.185031,11.767866
[MO833] Paramount Iteration,1,86,0.185034,11.771578
[MO833] Paramount Iteration,10,86,0.185074,11.771460
[MO833] Paramount Iteration,3,86,0.185029,11.771403
[MO833] Paramount Iteration,7,86,0.185007,11.771409
[MO833] Paramount Iteration,8,86,0.185008,11.771386
[MO833] Paramount Iteration,13,86,0.185018,11.771341
[MO833] Paramount Iteration,5,86,0.185025,11.771192
[MO833] Paramount Iteration,15,86,0.184989,11.767866
[MO833] Paramount Iteration,11,86,0.185026,11.771450
[MO833] Paramount Iteration,2,86,0.184986,11.771417
[MO833] Paramount Iteration,9,86,0.185054,11.771361
[MO833] Paramount Iteration,0,87,0.103160,11.874832
[MO833] Paramount Iteration,1,87,0.103253,11.874842
[MO833] Paramount Iteration,10,87,0.103242,11.874713
[MO833] Paramount Iteration,2,87,0.103190,11.874672
[MO833] Paramount Iteration,6,87,0.103242,11.874714
[MO833] Paramount Iteration,8,87,0.103226,11.874670
[MO833] Paramount Iteration,12,87,0.103255,11.874655
[MO833] Paramount Iteration,4,87,0.103245,11.874482
[MO833] Paramount Iteration,14,87,0.103294,11.871173
[MO833] Paramount Iteration,11,87,0.103193,11.874704
[MO833] Paramount Iteration,3,87,0.103231,11.874658
[MO833] Paramount Iteration,7,87,0.103271,11.874703
[MO833] Paramount Iteration,9,87,0.103272,11.874645
[MO833] Paramount Iteration,13,87,0.103306,11.874657
[MO833] Paramount Iteration,5,87,0.103294,11.874495
[MO833] Paramount Iteration,15,87,0.103250,11.871172
[MO833] Paramount Iteration,0,88,0.103543,11.978446
[MO833] Paramount Iteration,1,88,0.103594,11.978452
[MO833] Paramount Iteration,10,88,0.103615,11.978338
[MO833] Paramount Iteration,2,88,0.103566,11.978297
[MO833] Paramount Iteration,8,88,0.103537,11.978261
[MO833] Paramount Iteration,12,88,0.103543,11.978263
[MO833] Paramount Iteration,4,88,0.103553,11.978093
[MO833] Paramount Iteration,11,88,0.103566,11.978327
[MO833] Paramount Iteration,3,88,0.103598,11.978287
[MO833] Paramount Iteration,6,88,0.103578,11.978346
[MO833] Paramount Iteration,9,88,0.103581,11.978236
[MO833] Paramount Iteration,13,88,0.103599,11.978267
[MO833] Paramount Iteration,5,88,0.103601,11.978103
[MO833] Paramount Iteration,7,88,0.103606,11.978332
[MO833] Paramount Iteration,14,88,0.103635,11.974820
[MO833] Paramount Iteration,15,88,0.103592,11.974821
[MO833] Paramount Iteration,0,89,0.184543,12.163057
[MO833] Paramount Iteration,1,89,0.184603,12.163064
[MO833] Paramount Iteration,10,89,0.184586,12.162933
[MO833] Paramount Iteration,3,89,0.184562,12.162876
[MO833] Paramount Iteration,6,89,0.184520,12.162923
[MO833] Paramount Iteration,8,89,0.184569,12.162880
[MO833] Paramount Iteration,12,89,0.184536,12.162858
[MO833] Paramount Iteration,4,89,0.184534,12.162686
[MO833] Paramount Iteration,14,89,0.184528,12.159361
[MO833] Paramount Iteration,11,89,0.184540,12.162926
[MO833] Paramount Iteration,2,89,0.184537,12.162894
[MO833] Paramount Iteration,7,89,0.184550,12.162913
[MO833] Paramount Iteration,9,89,0.184611,12.162854
[MO833] Paramount Iteration,13,89,0.184586,12.162861
[MO833] Paramount Iteration,5,89,0.184585,12.162698
[MO833] Paramount Iteration,15,89,0.184473,12.159360
[MO833] Paramount Iteration,11,90,0.139449,12.302435
[MO833] Paramount Iteration,3,90,0.139491,12.302393
[MO833] Paramount Iteration,7,90,0.139479,12.302415
[MO833] Paramount Iteration,12,90,0.139445,12.302368
[MO833] Paramount Iteration,4,90,0.139492,12.302236
[MO833] Paramount Iteration,15,90,0.139446,12.298860
[MO833] Paramount Iteration,0,90,0.139492,12.302620
[MO833] Paramount Iteration,8,90,0.139498,12.302432
[MO833] Paramount Iteration,13,90,0.139625,12.302496
[MO833] Paramount Iteration,14,90,0.139638,12.299009
[MO833] Paramount Iteration,10,90,0.139633,12.302579
[MO833] Paramount Iteration,5,90,0.139693,12.302398
[MO833] Paramount Iteration,2,90,0.139626,12.302596
[MO833] Paramount Iteration,6,90,0.139640,12.302618
[MO833] Paramount Iteration,9,90,0.139683,12.302546
[MO833] Paramount Iteration,1,90,0.139943,12.303019
[MO833] Paramount Iteration,0,91,0.102669,12.405375
[MO833] Paramount Iteration,1,91,0.102309,12.405382
[MO833] Paramount Iteration,10,91,0.102660,12.405251
[MO833] Paramount Iteration,3,91,0.102781,12.405194
[MO833] Paramount Iteration,6,91,0.102607,12.405249
[MO833] Paramount Iteration,8,91,0.102716,12.405195
[MO833] Paramount Iteration,12,91,0.102753,12.405178
[MO833] Paramount Iteration,4,91,0.102716,12.405004
[MO833] Paramount Iteration,14,91,0.102683,12.401705
[MO833] Paramount Iteration,11,91,0.102751,12.405243
[MO833] Paramount Iteration,2,91,0.102593,12.405211
[MO833] Paramount Iteration,7,91,0.102807,12.405242
[MO833] Paramount Iteration,9,91,0.102611,12.405170
[MO833] Paramount Iteration,13,91,0.102671,12.405181
[MO833] Paramount Iteration,5,91,0.102610,12.405021
[MO833] Paramount Iteration,15,91,0.102791,12.401703
[MO833] Paramount Iteration,12,92,0.183298,12.588539
[MO833] Paramount Iteration,4,92,0.183337,12.588400
[MO833] Paramount Iteration,0,92,0.183360,12.588798
[MO833] Paramount Iteration,10,92,0.183399,12.588660
[MO833] Paramount Iteration,2,92,0.183367,12.588644
[MO833] Paramount Iteration,6,92,0.183330,12.588636
[MO833] Paramount Iteration,8,92,0.183337,12.588591
[MO833] Paramount Iteration,13,92,0.183355,12.588546
[MO833] Paramount Iteration,5,92,0.183378,12.588406
[MO833] Paramount Iteration,14,92,0.183360,12.585077
[MO833] Paramount Iteration,1,92,0.183411,12.588804
[MO833] Paramount Iteration,11,92,0.183350,12.588649
[MO833] Paramount Iteration,3,92,0.183418,12.588636
[MO833] Paramount Iteration,7,92,0.183362,12.588626
[MO833] Paramount Iteration,9,92,0.183385,12.588566
[MO833] Paramount Iteration,15,92,0.183317,12.585078
[MO833] Paramount Iteration,12,93,0.102376,12.690976
[MO833] Paramount Iteration,4,93,0.102349,12.690810
[MO833] Paramount Iteration,0,93,0.102307,12.691211
[MO833] Paramount Iteration,10,93,0.102429,12.691099
[MO833] Paramount Iteration,3,93,0.102383,12.691043
[MO833] Paramount Iteration,6,93,0.102365,12.691057
[MO833] Paramount Iteration,8,93,0.102383,12.691030
[MO833] Paramount Iteration,13,93,0.102427,12.690980
[MO833] Paramount Iteration,5,93,0.102399,12.690820
[MO833] Paramount Iteration,14,93,0.102412,12.687506
[MO833] Paramount Iteration,1,93,0.102403,12.691219
[MO833] Paramount Iteration,11,93,0.102378,12.691088
[MO833] Paramount Iteration,2,93,0.102360,12.691061
[MO833] Paramount Iteration,7,93,0.102397,12.691047
[MO833] Paramount Iteration,9,93,0.102428,12.691004
[MO833] Paramount Iteration,15,93,0.102368,12.687506
[MO833] Paramount Iteration,0,94,0.102752,12.794068
[MO833] Paramount Iteration,1,94,0.102841,12.794075
[MO833] Paramount Iteration,10,94,0.102829,12.793936
[MO833] Paramount Iteration,2,94,0.102771,12.793901
[MO833] Paramount Iteration,6,94,0.102836,12.793947
[MO833] Paramount Iteration,8,94,0.102793,12.793876
[MO833] Paramount Iteration,12,94,0.102838,12.793876
[MO833] Paramount Iteration,4,94,0.102838,12.793703
[MO833] Paramount Iteration,11,94,0.102779,12.793925
[MO833] Paramount Iteration,3,94,0.102822,12.793890
[MO833] Paramount Iteration,7,94,0.102866,12.793936
[MO833] Paramount Iteration,9,94,0.102837,12.793851
[MO833] Paramount Iteration,13,94,0.102889,12.793878
[MO833] Paramount Iteration,5,94,0.102888,12.793716
[MO833] Paramount Iteration,14,94,0.102893,12.790410
[MO833] Paramount Iteration,15,94,0.102848,12.790409
[MO833] Paramount Iteration,0,95,0.184453,12.978582
[MO833] Paramount Iteration,1,95,0.184504,12.978588
[MO833] Paramount Iteration,10,95,0.184510,12.978455
[MO833] Paramount Iteration,2,95,0.184456,12.978414
[MO833] Paramount Iteration,6,95,0.184458,12.978463
[MO833] Paramount Iteration,8,95,0.184452,12.978385
[MO833] Paramount Iteration,12,95,0.184445,12.978382
[MO833] Paramount Iteration,4,95,0.184449,12.978208
[MO833] Paramount Iteration,11,95,0.184464,12.978447
[MO833] Paramount Iteration,3,95,0.184483,12.978399
[MO833] Paramount Iteration,7,95,0.184491,12.978452
[MO833] Paramount Iteration,9,95,0.184503,12.978365
[MO833] Paramount Iteration,13,95,0.184496,12.978385
[MO833] Paramount Iteration,5,95,0.184494,12.978218
[MO833] Paramount Iteration,14,95,0.184504,12.974927
[MO833] Paramount Iteration,15,95,0.184458,12.974926
[MO833] Paramount Iteration,0,96,0.104325,13.082968
[MO833] Paramount Iteration,1,96,0.104377,13.082974
[MO833] Paramount Iteration,2,96,0.104327,13.082795
[MO833] Paramount Iteration,4,96,0.104342,13.082605
[MO833] Paramount Iteration,3,96,0.104351,13.082779
[MO833] Paramount Iteration,5,96,0.104392,13.082618
[MO833] Paramount Iteration,14,96,0.104373,13.079312
[MO833] Paramount Iteration,10,96,0.104365,13.082832
[MO833] Paramount Iteration,6,96,0.104318,13.082842
[MO833] Paramount Iteration,8,96,0.104335,13.082776
[MO833] Paramount Iteration,12,96,0.104333,13.082777
[MO833] Paramount Iteration,15,96,0.104329,13.079311
[MO833] Paramount Iteration,11,96,0.104317,13.082822
[MO833] Paramount Iteration,7,96,0.104352,13.082830
[MO833] Paramount Iteration,9,96,0.104377,13.082749
[MO833] Paramount Iteration,13,96,0.104386,13.082781
[MO833] Paramount Iteration,6,97,0.103109,13.186010
[MO833] Paramount Iteration,8,97,0.103140,13.185973
[MO833] Paramount Iteration,12,97,0.103095,13.185933
[MO833] Paramount Iteration,4,97,0.103102,13.185768
[MO833] Paramount Iteration,14,97,0.103148,13.182472
[MO833] Paramount Iteration,0,97,0.103137,13.186171
[MO833] Paramount Iteration,10,97,0.103199,13.186042
[MO833] Paramount Iteration,3,97,0.103184,13.185993
[MO833] Paramount Iteration,7,97,0.103145,13.186003
[MO833] Paramount Iteration,9,97,0.103184,13.185946
[MO833] Paramount Iteration,13,97,0.103147,13.185937
[MO833] Paramount Iteration,5,97,0.103152,13.185778
[MO833] Paramount Iteration,15,97,0.103105,13.182472
[MO833] Paramount Iteration,1,97,0.103190,13.186176
[MO833] Paramount Iteration,11,97,0.103146,13.186030
[MO833] Paramount Iteration,2,97,0.103161,13.186010
[MO833] Paramount Iteration,8,98,0.185917,13.371944
[MO833] Paramount Iteration,12,98,0.185906,13.371902
[MO833] Paramount Iteration,4,98,0.185949,13.371773
[MO833] Paramount Iteration,10,98,0.185949,13.372008
[MO833] Paramount Iteration,2,98,0.185939,13.372013
[MO833] Paramount Iteration,6,98,0.185952,13.372018
[MO833] Paramount Iteration,9,98,0.185967,13.371924
[MO833] Paramount Iteration,13,98,0.185969,13.371915
[MO833] Paramount Iteration,5,98,0.185992,13.371779
[MO833] Paramount Iteration,14,98,0.185970,13.368453
[MO833] Paramount Iteration,11,98,0.185897,13.371996
[MO833] Paramount Iteration,3,98,0.185985,13.372004
[MO833] Paramount Iteration,7,98,0.185986,13.372008
[MO833] Paramount Iteration,15,98,0.185922,13.368449
[MO833] Paramount Iteration,0,98,0.185886,13.372185
[MO833] Paramount Iteration,1,98,0.186004,13.372194
[MO833] Paramount Iteration,0,99,0.103424,13.475640
[MO833] Paramount Iteration,1,99,0.103196,13.475649
[MO833] Paramount Iteration,10,99,0.103473,13.475500
[MO833] Paramount Iteration,2,99,0.103398,13.475467
[MO833] Paramount Iteration,6,99,0.103447,13.475517
[MO833] Paramount Iteration,8,99,0.103436,13.475439
[MO833] Paramount Iteration,12,99,0.103488,13.475450
[MO833] Paramount Iteration,4,99,0.103445,13.475275
[MO833] Paramount Iteration,11,99,0.103425,13.475490
[MO833] Paramount Iteration,3,99,0.103428,13.475454
[MO833] Paramount Iteration,7,99,0.103475,13.475504
[MO833] Paramount Iteration,9,99,0.103479,13.475413
[MO833] Paramount Iteration,13,99,0.103531,13.475454
[MO833] Paramount Iteration,5,99,0.103490,13.475281
[MO833] Paramount Iteration,14,99,0.103527,13.471987
[MO833] Paramount Iteration,15,99,0.103484,13.471985
     100    1727.5561    1930.0116     3712.096    3597.8437         3844          248   -156.58211 
[MO833] Paramount Iteration,1,100,0.159614,13.635272
[MO833] Paramount Iteration,10,100,0.159591,13.635102
[MO833] Paramount Iteration,2,100,0.159598,13.635075
[MO833] Paramount Iteration,6,100,0.159556,13.635131
[MO833] Paramount Iteration,8,100,0.159580,13.635073
[MO833] Paramount Iteration,12,100,0.159554,13.635067
[MO833] Paramount Iteration,4,100,0.159568,13.634903
[MO833] Paramount Iteration,0,100,0.159632,13.635333
[MO833] Paramount Iteration,11,100,0.159552,13.635101
[MO833] Paramount Iteration,3,100,0.159565,13.635075
[MO833] Paramount Iteration,7,100,0.159598,13.635131
[MO833] Paramount Iteration,9,100,0.159614,13.635037
[MO833] Paramount Iteration,13,100,0.159597,13.635060
[MO833] Paramount Iteration,5,100,0.159603,13.634899
[MO833] Paramount Iteration,14,100,0.159609,13.631605
[MO833] Paramount Iteration,15,100,0.159576,13.631613
Loop time of 13.2069 on 16 procs for 100 steps with 24000 atoms

Performance: 1.308 ns/day, 18.343 hours/ns, 7.572 timesteps/s
76.1% CPU use with 16 MPI tasks x 1 OpenMP threads

MPI task timing breakdown:
Section |  min time  |  avg time  |  max time  |%varavg| %total
---------------------------------------------------------------
Pair    | 0.00015378 | 3.7278     | 8.3887     | 195.2 | 28.23
Bond    | 0.00013208 | 0.00017922 | 0.00027037 |   0.0 |  0.00
Kspace  | 1.8335     | 6.433      | 10.13      | 146.8 | 48.71
Neigh   | 2.4759     | 2.499      | 2.519      |   1.1 | 18.92
Comm    | 0.055556   | 0.16547    | 0.29517    |  26.3 |  1.25
Output  | 0.01424    | 0.016248   | 0.017538   |   0.7 |  0.12
Modify  | 0.18868    | 0.33143    | 0.47982    |  23.3 |  2.51
Other   |            | 0.03386    |            |       |  0.26

Nlocal:    1500 ave 3011 max 0 min
Histogram: 8 0 0 0 0 0 0 0 0 8
Nghost:    7445.69 ave 14909 max 0 min
Histogram: 8 0 0 0 0 0 0 0 0 8
Neighs:    1.02051e+06 ave 2.25439e+06 max 0 min
Histogram: 8 0 0 0 0 0 0 0 4 4

Total # of neighbors = 16328129
Ave neighs/atom = 680.339
Ave special neighs/atom = 2
Neighbor list builds = 31
Dangerous builds = 0
Total wall time: 0:00:13
[MO833] Beta,4,0.043273
[MO833] PI avg,4,0.132068,100
[MO833] Beta,1,0.043311
[MO833] PI avg,1,0.132069,100
[MO833] Beta,7,0.043304
[MO833] PI avg,7,0.132068,100
[MO833] Beta,3,0.043306
[MO833] PI avg,3,0.132067,100
[MO833] Beta,9,0.043307
[MO833] PI avg,9,0.132067,100
[MO833] Beta,2,0.043315
[MO833] PI avg,2,0.132067,100
[MO833] Beta,11,0.043321
[MO833] Beta,0,0.043318
[MO833] PI avg,0,0.132069,100
[MO833] Total time,13.779042
[MO833] PI avg,11,0.132067,100
[MO833] Beta,8,0.043324
[MO833] Beta,15,0.043046
[MO833] PI avg,15,0.132069,100
[MO833] PI avg,8,0.132068,100
[MO833] Beta,6,0.043329
[MO833] Beta,12,0.043329
[MO833] PI avg,6,0.132068,100
[MO833] Beta,13,0.043332
[MO833] PI avg,13,0.132067,100
[MO833] PI avg,12,0.132068,100
[MO833] Beta,10,0.043350
[MO833] PI avg,10,0.132067,100
[MO833] Beta,5,0.043339
[MO833] PI avg,5,0.132067,100
[MO833] Beta,14,0.043077
[MO833] PI avg,14,0.132069,100
