LAMMPS (3 Mar 2020)
OMP_NUM_THREADS environment is not set. Defaulting to 1 thread. (src/comm.cpp:94)
  using 1 OpenMP thread(s) per MPI task
Reading data file ...
  orthogonal box = (-16.796 -16.796 -16.796) to (16.796 16.796 16.796)
  2 by 2 by 4 MPI processor grid
  reading atoms ...
  32000 atoms
  reading velocities ...
  32000 velocities
  scanning bonds ...
  1 = max bonds/atom
  reading bonds ...
  31680 bonds
Finding 1-2 1-3 1-4 neighbors ...
  special bond factors lj:   0          1          1         
  special bond factors coul: 0          1          1         
  2 = max # of 1-2 neighbors
  2 = max # of special neighbors
  special bonds CPU = 0.00704741 secs
  read_data CPU = 0.252249 secs
Replicating atoms ...
  orthogonal box = (-16.796 -16.796 -16.796) to (117.572 117.572 117.572)
  2 by 2 by 4 MPI processor grid
  2048000 atoms
  2027520 bonds
Finding 1-2 1-3 1-4 neighbors ...
  special bond factors lj:   0          1          1         
  special bond factors coul: 0          1          1         
  2 = max # of 1-2 neighbors
  2 = max # of special neighbors
  special bonds CPU = 0.0769594 secs
  replicate CPU = 0.162467 secs
Neighbor list info ...
  update every 1 steps, delay 1 steps, check yes
  max neighbors/atom: 2000, page size: 100000
  master list distance cutoff = 1.52
  ghost atom cutoff = 1.52
  binsize = 0.76, bins = 177 177 177
  1 neighbor lists, perpetual/occasional/extra = 1 0 0
  (1) pair lj/cut, perpetual
      attributes: half, newton on
      pair build: half/bin/newton
      stencil: half/bin/3d/newton
      bin: standard
Setting up Verlet run ...
  Unit style    : lj
  Current step  : 0
  Time step     : 0.012
WARNING: Communication cutoff 1.52 is shorter than a bond length based estimate of 1.855. This may lead to errors. (src/comm.cpp:686)
Per MPI rank memory allocation (min/avg/max) = 50.41 | 50.41 | 50.41 Mbytes
Step Temp E_pair E_mol TotEng Press 
       0   0.97026787   0.44484087    20.494523    22.394765    4.6721833 
[MO833] Paramount Iteration,2,1,0.039743,0.783364
[MO833] Paramount Iteration,5,1,0.039735,0.791518
[MO833] Paramount Iteration,3,1,0.039727,0.775348
[MO833] Paramount Iteration,13,1,0.039743,0.789110
[MO833] Paramount Iteration,6,1,0.039848,0.791661
[MO833] Paramount Iteration,4,1,0.039890,0.791671
[MO833] Paramount Iteration,7,1,0.039847,0.791651
[MO833] Paramount Iteration,11,1,0.040032,0.791479
[MO833] Paramount Iteration,10,1,0.040108,0.791556
[MO833] Paramount Iteration,9,1,0.040132,0.774079
[MO833] Paramount Iteration,8,1,0.040291,0.777937
[MO833] Paramount Iteration,14,1,0.040257,0.792057
[MO833] Paramount Iteration,15,1,0.040227,0.792027
[MO833] Paramount Iteration,0,1,0.040434,0.792205
[MO833] Paramount Iteration,12,1,0.040412,0.789779
[MO833] Paramount Iteration,1,1,0.040713,0.792502
[MO833] Paramount Iteration,7,2,0.037031,0.828758
[MO833] Paramount Iteration,3,2,0.037382,0.812794
[MO833] Paramount Iteration,4,2,0.037199,0.828949
[MO833] Paramount Iteration,6,2,0.037458,0.829152
[MO833] Paramount Iteration,5,2,0.037613,0.829203
[MO833] Paramount Iteration,2,2,0.037693,0.821072
[MO833] Paramount Iteration,15,2,0.037214,0.829339
[MO833] Paramount Iteration,13,2,0.037814,0.827000
[MO833] Paramount Iteration,12,2,0.037276,0.827108
[MO833] Paramount Iteration,8,2,0.037476,0.815475
[MO833] Paramount Iteration,11,2,0.037668,0.829224
[MO833] Paramount Iteration,0,2,0.037536,0.829800
[MO833] Paramount Iteration,9,2,0.037873,0.811987
[MO833] Paramount Iteration,14,2,0.037720,0.829794
[MO833] Paramount Iteration,10,2,0.038124,0.829707
[MO833] Paramount Iteration,1,2,0.038231,0.830805
[MO833] Paramount Iteration,13,3,0.040129,0.867160
[MO833] Paramount Iteration,3,3,0.040781,0.853633
[MO833] Paramount Iteration,5,3,0.040531,0.869777
[MO833] Paramount Iteration,2,3,0.040558,0.861673
[MO833] Paramount Iteration,6,3,0.040784,0.869956
[MO833] Paramount Iteration,7,3,0.041255,0.870077
[MO833] Paramount Iteration,4,3,0.041065,0.870072
[MO833] Paramount Iteration,11,3,0.040284,0.869699
[MO833] Paramount Iteration,10,3,0.040030,0.869757
[MO833] Paramount Iteration,9,3,0.040489,0.852496
[MO833] Paramount Iteration,14,3,0.040450,0.870306
[MO833] Paramount Iteration,12,3,0.040848,0.867985
[MO833] Paramount Iteration,15,3,0.040889,0.870311
[MO833] Paramount Iteration,8,3,0.040796,0.856344
[MO833] Paramount Iteration,0,3,0.041207,0.871064
[MO833] Paramount Iteration,1,3,0.040389,0.871264
[MO833] Paramount Iteration,5,4,0.197536,1.067417
[MO833] Paramount Iteration,13,4,0.197756,1.064948
[MO833] Paramount Iteration,7,4,0.197400,1.067511
[MO833] Paramount Iteration,3,4,0.197744,1.051439
[MO833] Paramount Iteration,6,4,0.197595,1.067579
[MO833] Paramount Iteration,2,4,0.197809,1.059491
[MO833] Paramount Iteration,4,4,0.197596,1.067686
[MO833] Paramount Iteration,9,4,0.197366,1.049891
[MO833] Paramount Iteration,11,4,0.197618,1.067405
[MO833] Paramount Iteration,8,4,0.197342,1.053719
[MO833] Paramount Iteration,10,4,0.197877,1.067642
[MO833] Paramount Iteration,15,4,0.197627,1.067957
[MO833] Paramount Iteration,14,4,0.197672,1.068057
[MO833] Paramount Iteration,12,4,0.197707,1.065736
[MO833] Paramount Iteration,1,4,0.197256,1.068587
[MO833] Paramount Iteration,0,4,0.197548,1.068673
[MO833] Paramount Iteration,3,5,0.041758,1.093258
[MO833] Paramount Iteration,7,5,0.041871,1.109448
[MO833] Paramount Iteration,5,5,0.041897,1.109390
[MO833] Paramount Iteration,4,5,0.041759,1.109465
[MO833] Paramount Iteration,13,5,0.042112,1.107093
[MO833] Paramount Iteration,6,5,0.042049,1.109666
[MO833] Paramount Iteration,2,5,0.042030,1.101583
[MO833] Paramount Iteration,15,5,0.041645,1.109687
[MO833] Paramount Iteration,9,5,0.042134,1.092055
[MO833] Paramount Iteration,11,5,0.042034,1.109529
[MO833] Paramount Iteration,8,5,0.042105,1.095862
[MO833] Paramount Iteration,14,5,0.041859,1.109966
[MO833] Paramount Iteration,0,5,0.041331,1.110049
[MO833] Paramount Iteration,10,5,0.042166,1.109827
[MO833] Paramount Iteration,12,5,0.041977,1.107761
[MO833] Paramount Iteration,1,5,0.041688,1.110335
[MO833] Paramount Iteration,13,6,0.041967,1.149092
[MO833] Paramount Iteration,5,6,0.042255,1.151704
[MO833] Paramount Iteration,3,6,0.042325,1.135611
[MO833] Paramount Iteration,2,6,0.042065,1.143685
[MO833] Paramount Iteration,4,6,0.042443,1.151925
[MO833] Paramount Iteration,6,6,0.042337,1.152023
[MO833] Paramount Iteration,9,6,0.042135,1.134221
[MO833] Paramount Iteration,7,6,0.042585,1.152110
[MO833] Paramount Iteration,12,6,0.041973,1.149777
[MO833] Paramount Iteration,8,6,0.042278,1.138170
[MO833] Paramount Iteration,11,6,0.042264,1.151908
[MO833] Paramount Iteration,14,6,0.042240,1.152251
[MO833] Paramount Iteration,10,6,0.042106,1.151955
[MO833] Paramount Iteration,15,6,0.042500,1.152265
[MO833] Paramount Iteration,0,6,0.042332,1.152437
[MO833] Paramount Iteration,1,6,0.042302,1.152700
[MO833] Paramount Iteration,13,7,0.044403,1.193524
[MO833] Paramount Iteration,2,7,0.044204,1.187920
[MO833] Paramount Iteration,5,7,0.044321,1.196098
[MO833] Paramount Iteration,3,7,0.044277,1.179914
[MO833] Paramount Iteration,4,7,0.044251,1.196196
[MO833] Paramount Iteration,7,7,0.044059,1.196196
[MO833] Paramount Iteration,6,7,0.044186,1.196239
[MO833] Paramount Iteration,9,7,0.044350,1.178603
[MO833] Paramount Iteration,8,7,0.044268,1.182478
[MO833] Paramount Iteration,12,7,0.044319,1.194136
[MO833] Paramount Iteration,14,7,0.044247,1.196598
[MO833] Paramount Iteration,15,7,0.044316,1.196593
[MO833] Paramount Iteration,10,7,0.044351,1.196315
[MO833] Paramount Iteration,11,7,0.044303,1.196309
[MO833] Paramount Iteration,0,7,0.044336,1.196795
[MO833] Paramount Iteration,1,7,0.044170,1.196931
[MO833] Paramount Iteration,13,8,0.193531,1.387087
[MO833] Paramount Iteration,5,8,0.193454,1.389640
[MO833] Paramount Iteration,3,8,0.193715,1.373653
[MO833] Paramount Iteration,7,8,0.193518,1.389785
[MO833] Paramount Iteration,4,8,0.193643,1.389854
[MO833] Paramount Iteration,11,8,0.193067,1.389474
[MO833] Paramount Iteration,9,8,0.193534,1.372165
[MO833] Paramount Iteration,6,8,0.193825,1.390073
[MO833] Paramount Iteration,10,8,0.193427,1.389765
[MO833] Paramount Iteration,15,8,0.193383,1.390059
[MO833] Paramount Iteration,2,8,0.193971,1.381960
[MO833] Paramount Iteration,8,8,0.193545,1.376059
[MO833] Paramount Iteration,12,8,0.193566,1.387743
[MO833] Paramount Iteration,0,8,0.193555,1.390373
[MO833] Paramount Iteration,14,8,0.193777,1.390395
[MO833] Paramount Iteration,1,8,0.193665,1.390652
[MO833] Paramount Iteration,13,9,0.042132,1.429250
[MO833] Paramount Iteration,3,9,0.041989,1.415671
[MO833] Paramount Iteration,4,9,0.041915,1.431788
[MO833] Paramount Iteration,5,9,0.042069,1.431786
[MO833] Paramount Iteration,2,9,0.041756,1.423773
[MO833] Paramount Iteration,7,9,0.042222,1.432072
[MO833] Paramount Iteration,6,9,0.042096,1.432188
[MO833] Paramount Iteration,12,9,0.041964,1.429749
[MO833] Paramount Iteration,9,9,0.042220,1.414414
[MO833] Paramount Iteration,10,9,0.042261,1.432045
[MO833] Paramount Iteration,8,9,0.042221,1.418313
[MO833] Paramount Iteration,11,9,0.042440,1.432009
[MO833] Paramount Iteration,0,9,0.042059,1.432457
[MO833] Paramount Iteration,15,9,0.042272,1.432410
[MO833] Paramount Iteration,14,9,0.042030,1.432447
[MO833] Paramount Iteration,1,9,0.042073,1.432789
[MO833] Paramount Iteration,13,10,0.042730,1.472004
[MO833] Paramount Iteration,3,10,0.042699,1.458397
[MO833] Paramount Iteration,7,10,0.042562,1.474702
[MO833] Paramount Iteration,5,10,0.042873,1.474730
[MO833] Paramount Iteration,2,10,0.042824,1.466642
[MO833] Paramount Iteration,4,10,0.043001,1.474807
[MO833] Paramount Iteration,6,10,0.042645,1.474851
[MO833] Paramount Iteration,9,10,0.042660,1.457104
[MO833] Paramount Iteration,11,10,0.042438,1.474559
[MO833] Paramount Iteration,15,10,0.042456,1.474953
[MO833] Paramount Iteration,0,10,0.042675,1.475151
[MO833] Paramount Iteration,8,10,0.042665,1.461017
[MO833] Paramount Iteration,12,10,0.042902,1.472693
[MO833] Paramount Iteration,14,10,0.042684,1.475139
[MO833] Paramount Iteration,10,10,0.042802,1.474856
[MO833] Paramount Iteration,1,10,0.042477,1.475337
[MO833] Paramount Iteration,3,11,0.042265,1.500689
[MO833] Paramount Iteration,5,11,0.042116,1.516922
[MO833] Paramount Iteration,4,11,0.042168,1.516992
[MO833] Paramount Iteration,13,11,0.042507,1.514540
[MO833] Paramount Iteration,2,11,0.042253,1.508927
[MO833] Paramount Iteration,7,11,0.042364,1.517132
[MO833] Paramount Iteration,6,11,0.042311,1.517192
[MO833] Paramount Iteration,11,11,0.042298,1.516952
[MO833] Paramount Iteration,15,11,0.042298,1.517341
[MO833] Paramount Iteration,9,11,0.042571,1.499706
[MO833] Paramount Iteration,10,11,0.042316,1.517193
[MO833] Paramount Iteration,14,11,0.042368,1.517528
[MO833] Paramount Iteration,8,11,0.042427,1.503501
[MO833] Paramount Iteration,12,11,0.042403,1.515136
[MO833] Paramount Iteration,0,11,0.042476,1.517650
[MO833] Paramount Iteration,1,11,0.042686,1.518082
[MO833] Paramount Iteration,3,12,0.199681,1.700397
[MO833] Paramount Iteration,7,12,0.199318,1.716525
[MO833] Paramount Iteration,4,12,0.199662,1.716670
[MO833] Paramount Iteration,6,12,0.199589,1.716791
[MO833] Paramount Iteration,5,12,0.199869,1.716847
[MO833] Paramount Iteration,2,12,0.199815,1.708773
[MO833] Paramount Iteration,11,12,0.199537,1.716570
[MO833] Paramount Iteration,13,12,0.199974,1.714545
[MO833] Paramount Iteration,15,12,0.199605,1.717025
[MO833] Paramount Iteration,8,12,0.199455,1.702984
[MO833] Paramount Iteration,12,12,0.199598,1.714779
[MO833] Paramount Iteration,0,12,0.199648,1.717325
[MO833] Paramount Iteration,9,12,0.199801,1.699541
[MO833] Paramount Iteration,10,12,0.199807,1.717020
[MO833] Paramount Iteration,14,12,0.199782,1.717329
[MO833] Paramount Iteration,1,12,0.199967,1.718107
[MO833] Paramount Iteration,3,13,0.044716,1.745143
[MO833] Paramount Iteration,13,13,0.044206,1.758782
[MO833] Paramount Iteration,5,13,0.044525,1.761390
[MO833] Paramount Iteration,2,13,0.044565,1.753374
[MO833] Paramount Iteration,7,13,0.044959,1.761548
[MO833] Paramount Iteration,4,13,0.044935,1.761668
[MO833] Paramount Iteration,6,13,0.044963,1.761773
[MO833] Paramount Iteration,9,13,0.044355,1.743916
[MO833] Paramount Iteration,15,13,0.044652,1.761762
[MO833] Paramount Iteration,8,13,0.044839,1.747896
[MO833] Paramount Iteration,11,13,0.044932,1.761603
[MO833] Paramount Iteration,12,13,0.044783,1.759599
[MO833] Paramount Iteration,14,13,0.044703,1.762054
[MO833] Paramount Iteration,10,13,0.044703,1.761746
[MO833] Paramount Iteration,0,13,0.044870,1.762217
[MO833] Paramount Iteration,1,13,0.044353,1.762535
[MO833] Paramount Iteration,3,14,0.044036,1.789206
[MO833] Paramount Iteration,2,14,0.044121,1.797527
[MO833] Paramount Iteration,13,14,0.044371,1.803184
[MO833] Paramount Iteration,7,14,0.044093,1.805703
[MO833] Paramount Iteration,5,14,0.044347,1.805766
[MO833] Paramount Iteration,6,14,0.044168,1.805959
[MO833] Paramount Iteration,4,14,0.044219,1.805922
[MO833] Paramount Iteration,15,14,0.044104,1.805973
[MO833] Paramount Iteration,11,14,0.043971,1.805681
[MO833] Paramount Iteration,9,14,0.044310,1.788260
[MO833] Paramount Iteration,14,14,0.044116,1.806194
[MO833] Paramount Iteration,10,14,0.044147,1.805912
[MO833] Paramount Iteration,12,14,0.044205,1.803848
[MO833] Paramount Iteration,0,14,0.044145,1.806387
[MO833] Paramount Iteration,8,14,0.044354,1.792291
[MO833] Paramount Iteration,1,14,0.044217,1.806822
[MO833] Paramount Iteration,13,15,0.043591,1.846806
[MO833] Paramount Iteration,5,15,0.043662,1.849456
[MO833] Paramount Iteration,2,15,0.043799,1.841359
[MO833] Paramount Iteration,3,15,0.044291,1.833525
[MO833] Paramount Iteration,4,15,0.043770,1.849725
[MO833] Paramount Iteration,6,15,0.043742,1.849721
[MO833] Paramount Iteration,7,15,0.044204,1.849974
[MO833] Paramount Iteration,9,15,0.043830,1.832123
[MO833] Paramount Iteration,12,15,0.043754,1.847651
[MO833] Paramount Iteration,1,15,0.043248,1.850138
[MO833] Paramount Iteration,8,15,0.043714,1.836048
[MO833] Paramount Iteration,10,15,0.043833,1.849764
[MO833] Paramount Iteration,14,15,0.043897,1.850113
[MO833] Paramount Iteration,0,15,0.043887,1.850294
[MO833] Paramount Iteration,11,15,0.044196,1.849985
[MO833] Paramount Iteration,15,15,0.044255,1.850312
[MO833] Paramount Iteration,13,16,0.196692,2.043531
[MO833] Paramount Iteration,3,16,0.196423,2.029966
[MO833] Paramount Iteration,5,16,0.196748,2.046230
[MO833] Paramount Iteration,15,16,0.195870,2.046221
[MO833] Paramount Iteration,2,16,0.196756,2.038183
[MO833] Paramount Iteration,7,16,0.196261,2.046270
[MO833] Paramount Iteration,9,16,0.196411,2.028592
[MO833] Paramount Iteration,11,16,0.196026,2.046052
[MO833] Paramount Iteration,6,16,0.196754,2.046514
[MO833] Paramount Iteration,4,16,0.196701,2.046463
[MO833] Paramount Iteration,14,16,0.196412,2.046558
[MO833] Paramount Iteration,0,16,0.196344,2.046650
[MO833] Paramount Iteration,10,16,0.196475,2.046272
[MO833] Paramount Iteration,8,16,0.196484,2.032571
[MO833] Paramount Iteration,12,16,0.196567,2.044261
[MO833] Paramount Iteration,1,16,0.196456,2.046800
[MO833] Paramount Iteration,3,17,0.042438,2.072442
[MO833] Paramount Iteration,13,17,0.042536,2.086098
[MO833] Paramount Iteration,7,17,0.042326,2.088663
[MO833] Paramount Iteration,5,17,0.042403,2.088662
[MO833] Paramount Iteration,11,17,0.042271,2.088410
[MO833] Paramount Iteration,15,17,0.042524,2.088817
[MO833] Paramount Iteration,2,17,0.042560,2.080775
[MO833] Paramount Iteration,4,17,0.042426,2.088927
[MO833] Paramount Iteration,6,17,0.042489,2.089024
[MO833] Paramount Iteration,9,17,0.042584,2.071209
[MO833] Paramount Iteration,10,17,0.042414,2.088705
[MO833] Paramount Iteration,14,17,0.042615,2.089193
[MO833] Paramount Iteration,12,17,0.042499,2.086806
[MO833] Paramount Iteration,0,17,0.042632,2.089303
[MO833] Paramount Iteration,8,17,0.042613,2.075226
[MO833] Paramount Iteration,1,17,0.042711,2.089564
[MO833] Paramount Iteration,13,18,0.043601,2.129729
[MO833] Paramount Iteration,3,18,0.043830,2.116300
[MO833] Paramount Iteration,5,18,0.043814,2.132502
[MO833] Paramount Iteration,2,18,0.043610,2.124419
[MO833] Paramount Iteration,11,18,0.043812,2.132309
[MO833] Paramount Iteration,4,18,0.043789,2.132751
[MO833] Paramount Iteration,10,18,0.043696,2.132421
[MO833] Paramount Iteration,7,18,0.044098,2.132832
[MO833] Paramount Iteration,9,18,0.043817,2.115058
[MO833] Paramount Iteration,6,18,0.043840,2.132884
[MO833] Paramount Iteration,8,18,0.043583,2.118852
[MO833] Paramount Iteration,12,18,0.043664,2.130513
[MO833] Paramount Iteration,14,18,0.043660,2.132872
[MO833] Paramount Iteration,15,18,0.043976,2.132866
[MO833] Paramount Iteration,0,18,0.043880,2.133213
[MO833] Paramount Iteration,1,18,0.043892,2.133516
[MO833] Paramount Iteration,13,19,0.043354,2.173112
[MO833] Paramount Iteration,3,19,0.043232,2.159559
[MO833] Paramount Iteration,5,19,0.043224,2.175752
[MO833] Paramount Iteration,4,19,0.043183,2.175970
[MO833] Paramount Iteration,2,19,0.043437,2.167900
[MO833] Paramount Iteration,11,19,0.043343,2.175735
[MO833] Paramount Iteration,7,19,0.043264,2.176168
[MO833] Paramount Iteration,12,19,0.043193,2.173748
[MO833] Paramount Iteration,0,19,0.043086,2.176325
[MO833] Paramount Iteration,6,19,0.043450,2.176342
[MO833] Paramount Iteration,9,19,0.043467,2.158554
[MO833] Paramount Iteration,10,19,0.043569,2.176008
[MO833] Paramount Iteration,15,19,0.043366,2.176312
[MO833] Paramount Iteration,8,19,0.043532,2.162413
[MO833] Paramount Iteration,14,19,0.043612,2.176507
[MO833] Paramount Iteration,1,19,0.043157,2.176736
[MO833] Paramount Iteration,13,20,0.198131,2.371279
[MO833] Paramount Iteration,1,20,0.197311,2.374111
[MO833] Paramount Iteration,5,20,0.198372,2.374150
[MO833] Paramount Iteration,2,20,0.198215,2.366161
[MO833] Paramount Iteration,14,20,0.197756,2.374299
[MO833] Paramount Iteration,3,20,0.198563,2.358149
[MO833] Paramount Iteration,9,20,0.197911,2.356495
[MO833] Paramount Iteration,15,20,0.197886,2.374275
[MO833] Paramount Iteration,0,20,0.198073,2.374420
[MO833] Paramount Iteration,7,20,0.198153,2.374392
[MO833] Paramount Iteration,4,20,0.198385,2.374390
[MO833] Paramount Iteration,6,20,0.198092,2.374452
[MO833] Paramount Iteration,11,20,0.198255,2.374082
[MO833] Paramount Iteration,12,20,0.198218,2.372002
[MO833] Paramount Iteration,10,20,0.198138,2.374166
[MO833] Paramount Iteration,8,20,0.198082,2.360529
[MO833] Paramount Iteration,13,21,0.042657,2.413965
[MO833] Paramount Iteration,5,21,0.042345,2.416523
[MO833] Paramount Iteration,3,21,0.042367,2.400542
[MO833] Paramount Iteration,2,21,0.042399,2.408632
[MO833] Paramount Iteration,4,21,0.042361,2.416788
[MO833] Paramount Iteration,11,21,0.042279,2.416474
[MO833] Paramount Iteration,10,21,0.042387,2.416570
[MO833] Paramount Iteration,14,21,0.042564,2.416872
[MO833] Paramount Iteration,15,21,0.042530,2.416877
[MO833] Paramount Iteration,6,21,0.042490,2.416950
[MO833] Paramount Iteration,7,21,0.042489,2.416956
[MO833] Paramount Iteration,9,21,0.042616,2.399144
[MO833] Paramount Iteration,0,21,0.042658,2.417090
[MO833] Paramount Iteration,12,21,0.042617,2.414663
[MO833] Paramount Iteration,8,21,0.042558,2.403130
[MO833] Paramount Iteration,1,21,0.043272,2.417465
[MO833] Paramount Iteration,13,22,0.044420,2.458414
[MO833] Paramount Iteration,3,22,0.044383,2.444953
[MO833] Paramount Iteration,5,22,0.044595,2.461143
[MO833] Paramount Iteration,2,22,0.044407,2.453069
[MO833] Paramount Iteration,4,22,0.044489,2.461310
[MO833] Paramount Iteration,7,22,0.044300,2.461322
[MO833] Paramount Iteration,10,22,0.044430,2.461018
[MO833] Paramount Iteration,11,22,0.044436,2.461004
[MO833] Paramount Iteration,15,22,0.044440,2.461381
[MO833] Paramount Iteration,14,22,0.044553,2.461448
[MO833] Paramount Iteration,6,22,0.044498,2.461478
[MO833] Paramount Iteration,9,22,0.044455,2.443632
[MO833] Paramount Iteration,12,22,0.044340,2.459048
[MO833] Paramount Iteration,0,22,0.044558,2.461681
[MO833] Paramount Iteration,8,22,0.044457,2.447629
[MO833] Paramount Iteration,1,22,0.044361,2.461888
[MO833] Paramount Iteration,3,23,0.042678,2.487657
[MO833] Paramount Iteration,7,23,0.042463,2.503855
[MO833] Paramount Iteration,4,23,0.042564,2.503922
[MO833] Paramount Iteration,15,23,0.042430,2.503882
[MO833] Paramount Iteration,11,23,0.042547,2.503642
[MO833] Paramount Iteration,2,23,0.042822,2.495949
[MO833] Paramount Iteration,13,23,0.043183,2.501627
[MO833] Paramount Iteration,5,23,0.043012,2.504183
[MO833] Paramount Iteration,6,23,0.042731,2.504241
[MO833] Paramount Iteration,12,23,0.042720,2.501807
[MO833] Paramount Iteration,0,23,0.042594,2.504300
[MO833] Paramount Iteration,10,23,0.042953,2.503991
[MO833] Paramount Iteration,14,23,0.042889,2.504372
[MO833] Paramount Iteration,8,23,0.042662,2.490332
[MO833] Paramount Iteration,9,23,0.043189,2.486854
[MO833] Paramount Iteration,1,23,0.043154,2.505102
[MO833] Paramount Iteration,13,24,0.199004,2.700659
[MO833] Paramount Iteration,5,24,0.199255,2.703454
[MO833] Paramount Iteration,6,24,0.199287,2.703547
[MO833] Paramount Iteration,2,24,0.199461,2.695443
[MO833] Paramount Iteration,3,24,0.199803,2.687486
[MO833] Paramount Iteration,7,24,0.199740,2.703664
[MO833] Paramount Iteration,14,24,0.199221,2.703613
[MO833] Paramount Iteration,15,24,0.199750,2.703703
[MO833] Paramount Iteration,4,24,0.199756,2.703738
[MO833] Paramount Iteration,10,24,0.199355,2.703365
[MO833] Paramount Iteration,11,24,0.199732,2.703462
[MO833] Paramount Iteration,0,24,0.199555,2.703892
[MO833] Paramount Iteration,9,24,0.199117,2.685991
[MO833] Paramount Iteration,12,24,0.199616,2.701456
[MO833] Paramount Iteration,8,24,0.199501,2.689911
[MO833] Paramount Iteration,1,24,0.199007,2.704170
[MO833] Paramount Iteration,3,25,0.042426,2.729920
[MO833] Paramount Iteration,2,25,0.042649,2.738181
[MO833] Paramount Iteration,13,25,0.043162,2.743850
[MO833] Paramount Iteration,7,25,0.042647,2.746350
[MO833] Paramount Iteration,6,25,0.042846,2.746421
[MO833] Paramount Iteration,5,25,0.042922,2.746404
[MO833] Paramount Iteration,15,25,0.042689,2.746419
[MO833] Paramount Iteration,4,25,0.042710,2.746486
[MO833] Paramount Iteration,11,25,0.042641,2.746132
[MO833] Paramount Iteration,14,25,0.042931,2.746574
[MO833] Paramount Iteration,10,25,0.042893,2.746286
[MO833] Paramount Iteration,0,25,0.042915,2.746828
[MO833] Paramount Iteration,12,25,0.042859,2.744355
[MO833] Paramount Iteration,8,25,0.042870,2.732817
[MO833] Paramount Iteration,9,25,0.043138,2.729161
[MO833] Paramount Iteration,1,25,0.043062,2.747289
[MO833] Paramount Iteration,3,26,0.043533,2.773480
[MO833] Paramount Iteration,7,26,0.043236,2.789651
[MO833] Paramount Iteration,4,26,0.043155,2.789668
[MO833] Paramount Iteration,11,26,0.043242,2.789460
[MO833] Paramount Iteration,0,26,0.043040,2.789910
[MO833] Paramount Iteration,2,26,0.043535,2.781763
[MO833] Paramount Iteration,15,26,0.043358,2.789844
[MO833] Paramount Iteration,6,26,0.043541,2.789996
[MO833] Paramount Iteration,5,26,0.043539,2.789971
[MO833] Paramount Iteration,12,26,0.043117,2.787516
[MO833] Paramount Iteration,13,26,0.043719,2.787596
[MO833] Paramount Iteration,8,26,0.043018,2.775921
[MO833] Paramount Iteration,10,26,0.043418,2.789745
[MO833] Paramount Iteration,14,26,0.043690,2.790297
[MO833] Paramount Iteration,9,26,0.043588,2.772759
[MO833] Paramount Iteration,1,26,0.043594,2.790942
[MO833] Paramount Iteration,3,27,0.044058,2.817565
[MO833] Paramount Iteration,4,27,0.043989,2.833720
[MO833] Paramount Iteration,13,27,0.043620,2.831236
[MO833] Paramount Iteration,5,27,0.043770,2.833760
[MO833] Paramount Iteration,2,27,0.043951,2.825746
[MO833] Paramount Iteration,15,27,0.043974,2.833882
[MO833] Paramount Iteration,7,27,0.044271,2.833990
[MO833] Paramount Iteration,11,27,0.044081,2.833649
[MO833] Paramount Iteration,12,27,0.044046,2.831625
[MO833] Paramount Iteration,6,27,0.044103,2.834119
[MO833] Paramount Iteration,10,27,0.044107,2.833870
[MO833] Paramount Iteration,14,27,0.043906,2.834223
[MO833] Paramount Iteration,0,27,0.044389,2.834321
[MO833] Paramount Iteration,9,27,0.043821,2.816603
[MO833] Paramount Iteration,8,27,0.044406,2.820408
[MO833] Paramount Iteration,1,27,0.043855,2.834862
[MO833] Paramount Iteration,13,28,0.201967,3.033231
[MO833] Paramount Iteration,5,28,0.202284,3.036051
[MO833] Paramount Iteration,2,28,0.202240,3.028029
[MO833] Paramount Iteration,3,28,0.202425,3.020017
[MO833] Paramount Iteration,6,28,0.202040,3.036190
[MO833] Paramount Iteration,7,28,0.202136,3.036194
[MO833] Paramount Iteration,11,28,0.202181,3.035919
[MO833] Paramount Iteration,10,28,0.202110,3.035999
[MO833] Paramount Iteration,4,28,0.202573,3.036358
[MO833] Paramount Iteration,14,28,0.202152,3.036395
[MO833] Paramount Iteration,15,28,0.202428,3.036387
[MO833] Paramount Iteration,12,28,0.202385,3.034048
[MO833] Paramount Iteration,9,28,0.202084,3.018719
[MO833] Paramount Iteration,8,28,0.202120,3.022553
[MO833] Paramount Iteration,0,28,0.202444,3.036785
[MO833] Paramount Iteration,1,28,0.202160,3.037087
[MO833] Paramount Iteration,13,29,0.045756,3.079015
[MO833] Paramount Iteration,3,29,0.045546,3.065589
[MO833] Paramount Iteration,2,29,0.045617,3.073724
[MO833] Paramount Iteration,7,29,0.045607,3.081857
[MO833] Paramount Iteration,5,29,0.045758,3.081840
[MO833] Paramount Iteration,6,29,0.045701,3.081919
[MO833] Paramount Iteration,11,29,0.045649,3.081652
[MO833] Paramount Iteration,4,29,0.045699,3.082095
[MO833] Paramount Iteration,10,29,0.045764,3.081779
[MO833] Paramount Iteration,9,29,0.045587,3.064335
[MO833] Paramount Iteration,15,29,0.045653,3.082116
[MO833] Paramount Iteration,12,29,0.045700,3.079789
[MO833] Paramount Iteration,14,29,0.045831,3.082241
[MO833] Paramount Iteration,8,29,0.045713,3.068297
[MO833] Paramount Iteration,0,29,0.045695,3.082506
[MO833] Paramount Iteration,1,29,0.045651,3.082807
[MO833] Paramount Iteration,13,30,0.044352,3.123396
[MO833] Paramount Iteration,3,30,0.044263,3.109880
[MO833] Paramount Iteration,7,30,0.044153,3.126067
[MO833] Paramount Iteration,5,30,0.044232,3.126099
[MO833] Paramount Iteration,2,30,0.044344,3.118132
[MO833] Paramount Iteration,6,30,0.044384,3.126351
[MO833] Paramount Iteration,11,30,0.044241,3.125981
[MO833] Paramount Iteration,15,30,0.044146,3.126339
[MO833] Paramount Iteration,4,30,0.044317,3.126447
[MO833] Paramount Iteration,9,30,0.044302,3.108668
[MO833] Paramount Iteration,10,30,0.044358,3.126156
[MO833] Paramount Iteration,12,30,0.044322,3.124150
[MO833] Paramount Iteration,0,30,0.044104,3.126634
[MO833] Paramount Iteration,8,30,0.044229,3.112564
[MO833] Paramount Iteration,14,30,0.044369,3.126629
[MO833] Paramount Iteration,1,30,0.044092,3.126961
[MO833] Paramount Iteration,13,31,0.044056,3.167480
[MO833] Paramount Iteration,3,31,0.044051,3.153958
[MO833] Paramount Iteration,2,31,0.043922,3.162087
[MO833] Paramount Iteration,5,31,0.044070,3.170196
[MO833] Paramount Iteration,6,31,0.043883,3.170253
[MO833] Paramount Iteration,7,31,0.044114,3.170240
[MO833] Paramount Iteration,9,31,0.043750,3.152510
[MO833] Paramount Iteration,4,31,0.043910,3.170394
[MO833] Paramount Iteration,11,31,0.043964,3.170032
[MO833] Paramount Iteration,10,31,0.043914,3.170087
[MO833] Paramount Iteration,8,31,0.043789,3.156375
[MO833] Paramount Iteration,0,31,0.043870,3.170546
[MO833] Paramount Iteration,12,31,0.043974,3.168164
[MO833] Paramount Iteration,14,31,0.043894,3.170544
[MO833] Paramount Iteration,15,31,0.044140,3.170553
[MO833] Paramount Iteration,1,31,0.043730,3.170755
[MO833] Paramount Iteration,13,32,0.199915,3.367426
[MO833] Paramount Iteration,5,32,0.199802,3.370025
[MO833] Paramount Iteration,6,32,0.199932,3.370202
[MO833] Paramount Iteration,2,32,0.199993,3.362127
[MO833] Paramount Iteration,3,32,0.200151,3.354144
[MO833] Paramount Iteration,7,32,0.200054,3.370353
[MO833] Paramount Iteration,4,32,0.199918,3.370345
[MO833] Paramount Iteration,9,32,0.199940,3.352538
[MO833] Paramount Iteration,11,32,0.199942,3.370079
[MO833] Paramount Iteration,10,32,0.200014,3.370110
[MO833] Paramount Iteration,8,32,0.200026,3.356420
[MO833] Paramount Iteration,14,32,0.199947,3.370521
[MO833] Paramount Iteration,12,32,0.199961,3.368168
[MO833] Paramount Iteration,15,32,0.199995,3.370624
[MO833] Paramount Iteration,0,32,0.200153,3.370721
[MO833] Paramount Iteration,1,32,0.200182,3.370992
[MO833] Paramount Iteration,2,33,0.044379,3.406584
[MO833] Paramount Iteration,13,33,0.044852,3.412307
[MO833] Paramount Iteration,3,33,0.044533,3.398685
[MO833] Paramount Iteration,6,33,0.044671,3.414902
[MO833] Paramount Iteration,4,33,0.044577,3.414955
[MO833] Paramount Iteration,5,33,0.044913,3.414966
[MO833] Paramount Iteration,10,33,0.044542,3.414660
[MO833] Paramount Iteration,7,33,0.044697,3.415083
[MO833] Paramount Iteration,0,33,0.044514,3.415256
[MO833] Paramount Iteration,11,33,0.044721,3.414897
[MO833] Paramount Iteration,14,33,0.044622,3.415178
[MO833] Paramount Iteration,9,33,0.044905,3.397531
[MO833] Paramount Iteration,8,33,0.044824,3.401265
[MO833] Paramount Iteration,15,33,0.044752,3.415405
[MO833] Paramount Iteration,12,33,0.044797,3.413007
[MO833] Paramount Iteration,1,33,0.044554,3.415609
[MO833] Paramount Iteration,3,34,0.043939,3.442642
[MO833] Paramount Iteration,13,34,0.043981,3.456317
[MO833] Paramount Iteration,2,34,0.044101,3.450757
[MO833] Paramount Iteration,5,34,0.043877,3.458852
[MO833] Paramount Iteration,6,34,0.044029,3.458959
[MO833] Paramount Iteration,4,34,0.044034,3.459048
[MO833] Paramount Iteration,7,34,0.044028,3.459146
[MO833] Paramount Iteration,10,34,0.044072,3.458763
[MO833] Paramount Iteration,11,34,0.043814,3.458749
[MO833] Paramount Iteration,9,34,0.043747,3.441367
[MO833] Paramount Iteration,0,34,0.043979,3.459261
[MO833] Paramount Iteration,1,34,0.043690,3.459356
[MO833] Paramount Iteration,8,34,0.044002,3.445276
[MO833] Paramount Iteration,12,34,0.043911,3.456960
[MO833] Paramount Iteration,14,34,0.044140,3.459350
[MO833] Paramount Iteration,15,34,0.043986,3.459428
[MO833] Paramount Iteration,2,35,0.044233,3.495032
[MO833] Paramount Iteration,13,35,0.044392,3.500739
[MO833] Paramount Iteration,3,35,0.044527,3.487196
[MO833] Paramount Iteration,5,35,0.044425,3.503303
[MO833] Paramount Iteration,10,35,0.044253,3.503029
[MO833] Paramount Iteration,6,35,0.044465,3.503453
[MO833] Paramount Iteration,4,35,0.044397,3.503480
[MO833] Paramount Iteration,11,35,0.044425,3.503256
[MO833] Paramount Iteration,7,35,0.044476,3.503656
[MO833] Paramount Iteration,0,35,0.044416,3.503697
[MO833] Paramount Iteration,9,35,0.044462,3.485924
[MO833] Paramount Iteration,1,35,0.044496,3.503900
[MO833] Paramount Iteration,12,35,0.044417,3.501416
[MO833] Paramount Iteration,8,35,0.044553,3.489853
[MO833] Paramount Iteration,14,35,0.044633,3.504015
[MO833] Paramount Iteration,15,35,0.044684,3.504137
[MO833] Paramount Iteration,13,36,0.203594,3.704363
[MO833] Paramount Iteration,5,36,0.203640,3.706970
[MO833] Paramount Iteration,6,36,0.203582,3.707064
[MO833] Paramount Iteration,2,36,0.203837,3.698937
[MO833] Paramount Iteration,3,36,0.203735,3.690950
[MO833] Paramount Iteration,7,36,0.203474,3.707165
[MO833] Paramount Iteration,4,36,0.203666,3.707179
[MO833] Paramount Iteration,10,36,0.203791,3.706850
[MO833] Paramount Iteration,11,36,0.203569,3.706860
[MO833] Paramount Iteration,14,36,0.203354,3.707406
[MO833] Paramount Iteration,9,36,0.203654,3.689680
[MO833] Paramount Iteration,12,36,0.203611,3.705071
[MO833] Paramount Iteration,15,36,0.203371,3.707550
[MO833] Paramount Iteration,0,36,0.203920,3.707636
[MO833] Paramount Iteration,8,36,0.203671,3.693546
[MO833] Paramount Iteration,1,36,0.203829,3.707800
[MO833] Paramount Iteration,3,37,0.044499,3.735458
[MO833] Paramount Iteration,13,37,0.044775,3.749167
[MO833] Paramount Iteration,4,37,0.044458,3.751671
[MO833] Paramount Iteration,2,37,0.044602,3.743618
[MO833] Paramount Iteration,5,37,0.044695,3.751692
[MO833] Paramount Iteration,11,37,0.044596,3.751528
[MO833] Paramount Iteration,10,37,0.044692,3.751570
[MO833] Paramount Iteration,6,37,0.044879,3.751972
[MO833] Paramount Iteration,7,37,0.044856,3.752055
[MO833] Paramount Iteration,8,37,0.044350,3.737916
[MO833] Paramount Iteration,9,37,0.044443,3.734227
[MO833] Paramount Iteration,0,37,0.044550,3.752203
[MO833] Paramount Iteration,12,37,0.044622,3.749736
[MO833] Paramount Iteration,1,37,0.044452,3.752318
[MO833] Paramount Iteration,15,37,0.044671,3.752255
[MO833] Paramount Iteration,14,37,0.044898,3.752336
[MO833] Paramount Iteration,13,38,0.044377,3.793571
[MO833] Paramount Iteration,2,38,0.044314,3.787980
[MO833] Paramount Iteration,6,38,0.044094,3.796095
[MO833] Paramount Iteration,3,38,0.044490,3.779977
[MO833] Paramount Iteration,4,38,0.044430,3.796163
[MO833] Paramount Iteration,5,38,0.044498,3.796198
[MO833] Paramount Iteration,7,38,0.044248,3.796331
[MO833] Paramount Iteration,10,38,0.044510,3.796089
[MO833] Paramount Iteration,14,38,0.044029,3.796403
[MO833] Paramount Iteration,9,38,0.044386,3.778700
[MO833] Paramount Iteration,8,38,0.044551,3.782495
[MO833] Paramount Iteration,11,38,0.044586,3.796210
[MO833] Paramount Iteration,12,38,0.044382,3.794162
[MO833] Paramount Iteration,0,38,0.044453,3.796690
[MO833] Paramount Iteration,15,38,0.044389,3.796725
[MO833] Paramount Iteration,1,38,0.044479,3.796926
[MO833] Paramount Iteration,3,39,0.044339,3.824340
[MO833] Paramount Iteration,13,39,0.044403,3.838003
[MO833] Paramount Iteration,2,39,0.044391,3.832442
[MO833] Paramount Iteration,6,39,0.044414,3.840537
[MO833] Paramount Iteration,5,39,0.044308,3.840514
[MO833] Paramount Iteration,4,39,0.044354,3.840589
[MO833] Paramount Iteration,7,39,0.044317,3.840681
[MO833] Paramount Iteration,10,39,0.044352,3.840471
[MO833] Paramount Iteration,9,39,0.044262,3.823049
[MO833] Paramount Iteration,11,39,0.044193,3.840446
[MO833] Paramount Iteration,8,39,0.044267,3.826779
[MO833] Paramount Iteration,14,39,0.044439,3.840877
[MO833] Paramount Iteration,0,39,0.044257,3.840968
[MO833] Paramount Iteration,12,39,0.044356,3.838560
[MO833] Paramount Iteration,1,39,0.043885,3.840867
[MO833] Paramount Iteration,15,39,0.044280,3.841048
[MO833] Paramount Iteration,13,40,0.204265,4.042297
[MO833] Paramount Iteration,5,40,0.204430,4.044972
[MO833] Paramount Iteration,2,40,0.204463,4.036940
[MO833] Paramount Iteration,3,40,0.204573,4.028940
[MO833] Paramount Iteration,7,40,0.204377,4.045095
[MO833] Paramount Iteration,6,40,0.204597,4.045163
[MO833] Paramount Iteration,4,40,0.204635,4.045246
[MO833] Paramount Iteration,9,40,0.204345,4.027488
[MO833] Paramount Iteration,15,40,0.204250,4.045337
[MO833] Paramount Iteration,11,40,0.204493,4.045036
[MO833] Paramount Iteration,14,40,0.204484,4.045396
[MO833] Paramount Iteration,10,40,0.204636,4.045115
[MO833] Paramount Iteration,8,40,0.204649,4.031437
[MO833] Paramount Iteration,12,40,0.204519,4.043120
[MO833] Paramount Iteration,0,40,0.204730,4.045718
[MO833] Paramount Iteration,1,40,0.204830,4.045989
[MO833] Paramount Iteration,13,41,0.045608,4.087936
[MO833] Paramount Iteration,3,41,0.045634,4.074598
[MO833] Paramount Iteration,5,41,0.045759,4.090759
[MO833] Paramount Iteration,2,41,0.045689,4.082706
[MO833] Paramount Iteration,9,41,0.045460,4.073043
[MO833] Paramount Iteration,6,41,0.045748,4.090940
[MO833] Paramount Iteration,7,41,0.045745,4.090907
[MO833] Paramount Iteration,8,41,0.045490,4.076977
[MO833] Paramount Iteration,11,41,0.045497,4.090675
[MO833] Paramount Iteration,4,41,0.045829,4.091109
[MO833] Paramount Iteration,10,41,0.045627,4.090761
[MO833] Paramount Iteration,0,41,0.045432,4.091173
[MO833] Paramount Iteration,12,41,0.045596,4.088762
[MO833] Paramount Iteration,1,41,0.045025,4.091099
[MO833] Paramount Iteration,15,41,0.045847,4.091266
[MO833] Paramount Iteration,14,41,0.045905,4.091311
[MO833] Paramount Iteration,3,42,0.044888,4.119514
[MO833] Paramount Iteration,7,42,0.044831,4.135806
[MO833] Paramount Iteration,13,42,0.045388,4.133355
[MO833] Paramount Iteration,2,42,0.045076,4.127820
[MO833] Paramount Iteration,5,42,0.045139,4.135927
[MO833] Paramount Iteration,6,42,0.045104,4.136053
[MO833] Paramount Iteration,4,42,0.044860,4.136005
[MO833] Paramount Iteration,11,42,0.044831,4.135630
[MO833] Paramount Iteration,9,42,0.045349,4.118421
[MO833] Paramount Iteration,15,42,0.044820,4.136173
[MO833] Paramount Iteration,8,42,0.045183,4.122196
[MO833] Paramount Iteration,10,42,0.045137,4.135915
[MO833] Paramount Iteration,12,42,0.045057,4.133862
[MO833] Paramount Iteration,14,42,0.045137,4.136456
[MO833] Paramount Iteration,0,42,0.045394,4.136585
[MO833] Paramount Iteration,1,42,0.045798,4.137113
[MO833] Paramount Iteration,13,43,0.045413,4.178795
[MO833] Paramount Iteration,2,43,0.045383,4.173245
[MO833] Paramount Iteration,3,43,0.045662,4.165235
[MO833] Paramount Iteration,6,43,0.045346,4.181418
[MO833] Paramount Iteration,7,43,0.045610,4.181475
[MO833] Paramount Iteration,5,43,0.045598,4.181552
[MO833] Paramount Iteration,4,43,0.045618,4.181646
[MO833] Paramount Iteration,9,43,0.045470,4.163919
[MO833] Paramount Iteration,10,43,0.045481,4.181415
[MO833] Paramount Iteration,11,43,0.045684,4.181403
[MO833] Paramount Iteration,8,43,0.045561,4.167780
[MO833] Paramount Iteration,12,43,0.045568,4.179471
[MO833] Paramount Iteration,14,43,0.045460,4.181937
[MO833] Paramount Iteration,0,43,0.045409,4.182011
[MO833] Paramount Iteration,15,43,0.045805,4.182056
[MO833] Paramount Iteration,1,43,0.045023,4.182202
[MO833] Paramount Iteration,2,44,0.204908,4.378167
[MO833] Paramount Iteration,13,44,0.205034,4.383859
[MO833] Paramount Iteration,6,44,0.204947,4.386393
[MO833] Paramount Iteration,3,44,0.205070,4.370364
[MO833] Paramount Iteration,5,44,0.204936,4.386516
[MO833] Paramount Iteration,4,44,0.204908,4.386582
[MO833] Paramount Iteration,7,44,0.205207,4.386704
[MO833] Paramount Iteration,0,44,0.204677,4.386738
[MO833] Paramount Iteration,9,44,0.204985,4.368936
[MO833] Paramount Iteration,10,44,0.204956,4.386393
[MO833] Paramount Iteration,14,44,0.204831,4.386799
[MO833] Paramount Iteration,8,44,0.205024,4.372840
[MO833] Paramount Iteration,12,44,0.204970,4.384485
[MO833] Paramount Iteration,1,44,0.204690,4.386959
[MO833] Paramount Iteration,11,44,0.205138,4.386636
[MO833] Paramount Iteration,15,44,0.205022,4.387114
[MO833] Paramount Iteration,3,45,0.044058,4.414467
[MO833] Paramount Iteration,7,45,0.043834,4.430576
[MO833] Paramount Iteration,4,45,0.043962,4.430567
[MO833] Paramount Iteration,13,45,0.044262,4.428151
[MO833] Paramount Iteration,2,45,0.044348,4.422592
[MO833] Paramount Iteration,5,45,0.044147,4.430690
[MO833] Paramount Iteration,15,45,0.043495,4.430651
[MO833] Paramount Iteration,11,45,0.043806,4.430478
[MO833] Paramount Iteration,6,45,0.044539,4.430960
[MO833] Paramount Iteration,12,45,0.044064,4.428591
[MO833] Paramount Iteration,0,45,0.044267,4.431066
[MO833] Paramount Iteration,8,45,0.044076,4.416952
[MO833] Paramount Iteration,10,45,0.044294,4.430716
[MO833] Paramount Iteration,9,45,0.044379,4.413345
[MO833] Paramount Iteration,14,45,0.044304,4.431134
[MO833] Paramount Iteration,1,45,0.044442,4.431545
[MO833] Paramount Iteration,3,46,0.044041,4.458563
[MO833] Paramount Iteration,7,46,0.044189,4.474834
[MO833] Paramount Iteration,2,46,0.044132,4.466780
[MO833] Paramount Iteration,4,46,0.044233,4.474860
[MO833] Paramount Iteration,12,46,0.044003,4.472636
[MO833] Paramount Iteration,15,46,0.044352,4.475074
[MO833] Paramount Iteration,6,46,0.044174,4.475152
[MO833] Paramount Iteration,5,46,0.044445,4.475153
[MO833] Paramount Iteration,8,46,0.044013,4.461042
[MO833] Paramount Iteration,11,46,0.044210,4.474771
[MO833] Paramount Iteration,0,46,0.044068,4.475210
[MO833] Paramount Iteration,13,46,0.044567,4.472747
[MO833] Paramount Iteration,10,46,0.044401,4.475136
[MO833] Paramount Iteration,14,46,0.044418,4.475574
[MO833] Paramount Iteration,9,46,0.044606,4.457974
[MO833] Paramount Iteration,1,46,0.044539,4.476164
[MO833] Paramount Iteration,3,47,0.044783,4.503400
[MO833] Paramount Iteration,7,47,0.044616,4.519511
[MO833] Paramount Iteration,4,47,0.044632,4.519552
[MO833] Paramount Iteration,5,47,0.044615,4.519823
[MO833] Paramount Iteration,6,47,0.044740,4.519911
[MO833] Paramount Iteration,2,47,0.045012,4.511832
[MO833] Paramount Iteration,15,47,0.044804,4.519952
[MO833] Paramount Iteration,11,47,0.044774,4.519637
[MO833] Paramount Iteration,12,47,0.044919,4.517621
[MO833] Paramount Iteration,13,47,0.044864,4.517628
[MO833] Paramount Iteration,0,47,0.044908,4.520186
[MO833] Paramount Iteration,8,47,0.044944,4.506064
[MO833] Paramount Iteration,10,47,0.044863,4.520020
[MO833] Paramount Iteration,14,47,0.044807,4.520401
[MO833] Paramount Iteration,9,47,0.044988,4.502985
[MO833] Paramount Iteration,1,47,0.045043,4.521269
[MO833] Paramount Iteration,13,48,0.205033,4.722674
[MO833] Paramount Iteration,3,48,0.205693,4.709146
[MO833] Paramount Iteration,7,48,0.205681,4.725251
[MO833] Paramount Iteration,15,48,0.205309,4.725339
[MO833] Paramount Iteration,5,48,0.205536,4.725425
[MO833] Paramount Iteration,2,48,0.205605,4.717456
[MO833] Paramount Iteration,6,48,0.205679,4.725609
[MO833] Paramount Iteration,4,48,0.205999,4.725612
[MO833] Paramount Iteration,11,48,0.205490,4.725214
[MO833] Paramount Iteration,9,48,0.205013,4.708023
[MO833] Paramount Iteration,12,48,0.205683,4.723371
[MO833] Paramount Iteration,14,48,0.205379,4.725803
[MO833] Paramount Iteration,10,48,0.205482,4.725522
[MO833] Paramount Iteration,8,48,0.205821,4.711967
[MO833] Paramount Iteration,0,48,0.205913,4.726156
[MO833] Paramount Iteration,1,48,0.205041,4.726375
[MO833] Paramount Iteration,13,49,0.045394,4.768096
[MO833] Paramount Iteration,3,49,0.045340,4.754548
[MO833] Paramount Iteration,7,49,0.045422,4.770737
[MO833] Paramount Iteration,5,49,0.045344,4.770849
[MO833] Paramount Iteration,11,49,0.045179,4.770480
[MO833] Paramount Iteration,4,49,0.045282,4.770940
[MO833] Paramount Iteration,15,49,0.045498,4.770909
[MO833] Paramount Iteration,2,49,0.045404,4.762879
[MO833] Paramount Iteration,6,49,0.045403,4.771031
[MO833] Paramount Iteration,10,49,0.045225,4.770766
[MO833] Paramount Iteration,12,49,0.045284,4.768692
[MO833] Paramount Iteration,14,49,0.045442,4.771262
[MO833] Paramount Iteration,9,49,0.045464,4.753517
[MO833] Paramount Iteration,8,49,0.045326,4.757330
[MO833] Paramount Iteration,0,49,0.045439,4.771657
[MO833] Paramount Iteration,1,49,0.045608,4.772048
[MO833] Paramount Iteration,13,50,0.045537,4.813660
[MO833] Paramount Iteration,3,50,0.045579,4.800185
[MO833] Paramount Iteration,7,50,0.045563,4.816359
[MO833] Paramount Iteration,2,50,0.045516,4.808413
[MO833] Paramount Iteration,5,50,0.045546,4.816469
[MO833] Paramount Iteration,6,50,0.045503,4.816554
[MO833] Paramount Iteration,4,50,0.045606,4.816585
[MO833] Paramount Iteration,11,50,0.045639,4.816206
[MO833] Paramount Iteration,12,50,0.045585,4.814315
[MO833] Paramount Iteration,15,50,0.045711,4.816694
[MO833] Paramount Iteration,10,50,0.045706,4.816492
[MO833] Paramount Iteration,9,50,0.045597,4.799148
[MO833] Paramount Iteration,14,50,0.045664,4.816946
[MO833] Paramount Iteration,8,50,0.045710,4.803070
[MO833] Paramount Iteration,0,50,0.045476,4.817193
[MO833] Paramount Iteration,1,50,0.045453,4.817586
[MO833] Paramount Iteration,13,51,0.045386,4.859073
[MO833] Paramount Iteration,5,51,0.045309,4.861852
[MO833] Paramount Iteration,3,51,0.045648,4.845885
[MO833] Paramount Iteration,2,51,0.045479,4.853910
[MO833] Paramount Iteration,4,51,0.045408,4.862040
[MO833] Paramount Iteration,7,51,0.045706,4.862126
[MO833] Paramount Iteration,6,51,0.045621,4.862193
[MO833] Paramount Iteration,11,51,0.045580,4.861876
[MO833] Paramount Iteration,12,51,0.045443,4.859800
[MO833] Paramount Iteration,10,51,0.045397,4.861935
[MO833] Paramount Iteration,15,51,0.045495,4.862264
[MO833] Paramount Iteration,14,51,0.045359,4.862325
[MO833] Paramount Iteration,9,51,0.045377,4.844557
[MO833] Paramount Iteration,0,51,0.045290,4.862535
[MO833] Paramount Iteration,8,51,0.045360,4.848469
[MO833] Paramount Iteration,1,51,0.045081,4.862732
[MO833] Paramount Iteration,13,52,0.206348,5.065448
[MO833] Paramount Iteration,7,52,0.205862,5.068051
[MO833] Paramount Iteration,5,52,0.206129,5.068039
[MO833] Paramount Iteration,6,52,0.206029,5.068257
[MO833] Paramount Iteration,3,52,0.206183,5.052128
[MO833] Paramount Iteration,4,52,0.206177,5.068236
[MO833] Paramount Iteration,15,52,0.205894,5.068231
[MO833] Paramount Iteration,2,52,0.206240,5.060158
[MO833] Paramount Iteration,11,52,0.205999,5.067973
[MO833] Paramount Iteration,9,52,0.206031,5.050619
[MO833] Paramount Iteration,14,52,0.206061,5.068417
[MO833] Paramount Iteration,10,52,0.206162,5.068106
[MO833] Paramount Iteration,8,52,0.206060,5.054568
[MO833] Paramount Iteration,12,52,0.206369,5.066208
[MO833] Paramount Iteration,0,52,0.206077,5.068675
[MO833] Paramount Iteration,1,52,0.206001,5.068800
[MO833] Paramount Iteration,13,53,0.045118,5.110597
[MO833] Paramount Iteration,5,53,0.045205,5.113307
[MO833] Paramount Iteration,3,53,0.045059,5.097251
[MO833] Paramount Iteration,2,53,0.045181,5.105347
[MO833] Paramount Iteration,6,53,0.045214,5.113489
[MO833] Paramount Iteration,7,53,0.045453,5.113566
[MO833] Paramount Iteration,4,53,0.045270,5.113526
[MO833] Paramount Iteration,11,53,0.045131,5.113189
[MO833] Paramount Iteration,10,53,0.045153,5.113321
[MO833] Paramount Iteration,12,53,0.044996,5.111247
[MO833] Paramount Iteration,9,53,0.045295,5.095942
[MO833] Paramount Iteration,15,53,0.045399,5.113702
[MO833] Paramount Iteration,14,53,0.045294,5.113729
[MO833] Paramount Iteration,8,53,0.045260,5.099866
[MO833] Paramount Iteration,0,53,0.045251,5.113994
[MO833] Paramount Iteration,1,53,0.045466,5.114324
[MO833] Paramount Iteration,13,54,0.045750,5.156374
[MO833] Paramount Iteration,3,54,0.045558,5.142869
[MO833] Paramount Iteration,7,54,0.045453,5.159046
[MO833] Paramount Iteration,5,54,0.045641,5.159002
[MO833] Paramount Iteration,4,54,0.045546,5.159118
[MO833] Paramount Iteration,2,54,0.045740,5.151103
[MO833] Paramount Iteration,11,54,0.045585,5.158870
[MO833] Paramount Iteration,6,54,0.045796,5.159323
[MO833] Paramount Iteration,10,54,0.045717,5.159100
[MO833] Paramount Iteration,12,54,0.045728,5.157014
[MO833] Paramount Iteration,15,54,0.045636,5.159426
[MO833] Paramount Iteration,9,54,0.045812,5.141784
[MO833] Paramount Iteration,8,54,0.045630,5.145533
[MO833] Paramount Iteration,0,54,0.045629,5.159680
[MO833] Paramount Iteration,14,54,0.046057,5.159794
[MO833] Paramount Iteration,1,54,0.045653,5.160044
[MO833] Paramount Iteration,13,55,0.044966,5.201368
[MO833] Paramount Iteration,3,55,0.044986,5.187913
[MO833] Paramount Iteration,2,55,0.044829,5.195950
[MO833] Paramount Iteration,5,55,0.044997,5.204027
[MO833] Paramount Iteration,6,55,0.044834,5.204175
[MO833] Paramount Iteration,7,55,0.045151,5.204258
[MO833] Paramount Iteration,4,55,0.045122,5.204273
[MO833] Paramount Iteration,9,55,0.044677,5.186561
[MO833] Paramount Iteration,1,55,0.044282,5.204390
[MO833] Paramount Iteration,0,55,0.044776,5.204511
[MO833] Paramount Iteration,12,55,0.044998,5.202052
[MO833] Paramount Iteration,8,55,0.044936,5.190478
[MO833] Paramount Iteration,10,55,0.045037,5.204181
[MO833] Paramount Iteration,11,55,0.045200,5.204156
[MO833] Paramount Iteration,14,55,0.044842,5.204659
[MO833] Paramount Iteration,15,55,0.045132,5.204636
[MO833] Paramount Iteration,13,56,0.208219,5.409613
[MO833] Paramount Iteration,5,56,0.208309,5.412362
[MO833] Paramount Iteration,2,56,0.208402,5.404361
[MO833] Paramount Iteration,7,56,0.208184,5.412468
[MO833] Paramount Iteration,3,56,0.208382,5.396355
[MO833] Paramount Iteration,6,56,0.208333,5.412537
[MO833] Paramount Iteration,11,56,0.207906,5.412158
[MO833] Paramount Iteration,10,56,0.208056,5.412246
[MO833] Paramount Iteration,4,56,0.208337,5.412645
[MO833] Paramount Iteration,15,56,0.207977,5.412688
[MO833] Paramount Iteration,12,56,0.208270,5.410370
[MO833] Paramount Iteration,14,56,0.208117,5.412784
[MO833] Paramount Iteration,9,56,0.208527,5.395168
[MO833] Paramount Iteration,0,56,0.208508,5.413074
[MO833] Paramount Iteration,1,56,0.208625,5.413136
[MO833] Paramount Iteration,8,56,0.208638,5.399162
[MO833] Paramount Iteration,3,57,0.045101,5.441521
[MO833] Paramount Iteration,7,57,0.045149,5.457685
[MO833] Paramount Iteration,11,57,0.045157,5.457464
[MO833] Paramount Iteration,2,57,0.045455,5.449831
[MO833] Paramount Iteration,4,57,0.045234,5.457915
[MO833] Paramount Iteration,15,57,0.045185,5.457951
[MO833] Paramount Iteration,0,57,0.044921,5.458049
[MO833] Paramount Iteration,6,57,0.045524,5.458097
[MO833] Paramount Iteration,5,57,0.045695,5.458083
[MO833] Paramount Iteration,12,57,0.045279,5.455692
[MO833] Paramount Iteration,13,57,0.046089,5.455730
[MO833] Paramount Iteration,10,57,0.045686,5.457941
[MO833] Paramount Iteration,8,57,0.045061,5.444261
[MO833] Paramount Iteration,14,57,0.045660,5.458476
[MO833] Paramount Iteration,9,57,0.045864,5.441064
[MO833] Paramount Iteration,1,57,0.045885,5.459065
[MO833] Paramount Iteration,3,58,0.045856,5.487434
[MO833] Paramount Iteration,7,58,0.045848,5.503598
[MO833] Paramount Iteration,4,58,0.045601,5.503579
[MO833] Paramount Iteration,15,58,0.045690,5.503720
[MO833] Paramount Iteration,0,58,0.045808,5.503907
[MO833] Paramount Iteration,2,58,0.045955,5.495804
[MO833] Paramount Iteration,11,58,0.045947,5.503513
[MO833] Paramount Iteration,12,58,0.045674,5.501442
[MO833] Paramount Iteration,13,58,0.045828,5.501566
[MO833] Paramount Iteration,8,58,0.045562,5.489903
[MO833] Paramount Iteration,6,58,0.045968,5.504084
[MO833] Paramount Iteration,5,58,0.045933,5.504034
[MO833] Paramount Iteration,10,58,0.045984,5.503945
[MO833] Paramount Iteration,14,58,0.045812,5.504310
[MO833] Paramount Iteration,9,58,0.045877,5.486965
[MO833] Paramount Iteration,1,58,0.045926,5.505057
[MO833] Paramount Iteration,3,59,0.045516,5.533006
[MO833] Paramount Iteration,7,59,0.045665,5.549327
[MO833] Paramount Iteration,4,59,0.045643,5.549280
[MO833] Paramount Iteration,2,59,0.045483,5.541306
[MO833] Paramount Iteration,13,59,0.045385,5.546969
[MO833] Paramount Iteration,5,59,0.045430,5.549506
[MO833] Paramount Iteration,6,59,0.045503,5.549607
[MO833] Paramount Iteration,11,59,0.045642,5.549247
[MO833] Paramount Iteration,15,59,0.045816,5.549611
[MO833] Paramount Iteration,12,59,0.045828,5.547337
[MO833] Paramount Iteration,0,59,0.045945,5.549930
[MO833] Paramount Iteration,8,59,0.045826,5.535825
[MO833] Paramount Iteration,10,59,0.045574,5.549539
[MO833] Paramount Iteration,9,59,0.045358,5.532348
[MO833] Paramount Iteration,14,59,0.045764,5.550096
[MO833] Paramount Iteration,1,59,0.045605,5.550723
[MO833] Paramount Iteration,3,60,0.204626,5.737686
[MO833] Paramount Iteration,7,60,0.204454,5.753846
[MO833] Paramount Iteration,4,60,0.204519,5.753825
[MO833] Paramount Iteration,13,60,0.204366,5.751363
[MO833] Paramount Iteration,2,60,0.204466,5.745789
[MO833] Paramount Iteration,6,60,0.204259,5.753886
[MO833] Paramount Iteration,5,60,0.204269,5.753810
[MO833] Paramount Iteration,11,60,0.204345,5.753684
[MO833] Paramount Iteration,14,60,0.203891,5.754008
[MO833] Paramount Iteration,10,60,0.204161,5.753750
[MO833] Paramount Iteration,12,60,0.204330,5.751706
[MO833] Paramount Iteration,15,60,0.204416,5.754105
[MO833] Paramount Iteration,8,60,0.204191,5.740101
[MO833] Paramount Iteration,9,60,0.204029,5.736398
[MO833] Paramount Iteration,0,60,0.204353,5.754343
[MO833] Paramount Iteration,1,60,0.203712,5.754502
[MO833] Paramount Iteration,13,61,0.044127,5.795518
[MO833] Paramount Iteration,7,61,0.044315,5.798228
[MO833] Paramount Iteration,5,61,0.044313,5.798199
[MO833] Paramount Iteration,3,61,0.044408,5.782155
[MO833] Paramount Iteration,4,61,0.044501,5.798334
[MO833] Paramount Iteration,6,61,0.044528,5.798423
[MO833] Paramount Iteration,2,61,0.044547,5.790353
[MO833] Paramount Iteration,9,61,0.044322,5.780743
[MO833] Paramount Iteration,11,61,0.044425,5.798180
[MO833] Paramount Iteration,15,61,0.044409,5.798542
[MO833] Paramount Iteration,12,61,0.044457,5.796200
[MO833] Paramount Iteration,8,61,0.044427,5.784595
[MO833] Paramount Iteration,0,61,0.044249,5.798670
[MO833] Paramount Iteration,10,61,0.044542,5.798310
[MO833] Paramount Iteration,14,61,0.044690,5.798727
[MO833] Paramount Iteration,1,61,0.044351,5.798912
[MO833] Paramount Iteration,13,62,0.044379,5.839925
[MO833] Paramount Iteration,3,62,0.044230,5.826442
[MO833] Paramount Iteration,7,62,0.044302,5.842586
[MO833] Paramount Iteration,5,62,0.044286,5.842557
[MO833] Paramount Iteration,4,62,0.044394,5.842760
[MO833] Paramount Iteration,2,62,0.044379,5.834750
[MO833] Paramount Iteration,6,62,0.044461,5.842904
[MO833] Paramount Iteration,9,62,0.044336,5.825110
[MO833] Paramount Iteration,11,62,0.044243,5.842514
[MO833] Paramount Iteration,15,62,0.044249,5.842862
[MO833] Paramount Iteration,12,62,0.044337,5.840576
[MO833] Paramount Iteration,8,62,0.044378,5.829011
[MO833] Paramount Iteration,0,62,0.044415,5.843155
[MO833] Paramount Iteration,10,62,0.044480,5.842809
[MO833] Paramount Iteration,14,62,0.044441,5.843188
[MO833] Paramount Iteration,1,62,0.044378,5.843353
[MO833] Paramount Iteration,3,63,0.043496,5.869991
[MO833] Paramount Iteration,7,63,0.043499,5.886143
[MO833] Paramount Iteration,4,63,0.043461,5.886240
[MO833] Paramount Iteration,0,63,0.043241,5.886450
[MO833] Paramount Iteration,8,63,0.043327,5.872374
[MO833] Paramount Iteration,11,63,0.043527,5.886133
[MO833] Paramount Iteration,2,63,0.043707,5.878475
[MO833] Paramount Iteration,12,63,0.043514,5.884132
[MO833] Paramount Iteration,13,63,0.044220,5.884173
[MO833] Paramount Iteration,15,63,0.043631,5.886567
[MO833] Paramount Iteration,6,63,0.043750,5.886673
[MO833] Paramount Iteration,5,63,0.044012,5.886641
[MO833] Paramount Iteration,10,63,0.043768,5.886596
[MO833] Paramount Iteration,14,63,0.043845,5.887053
[MO833] Paramount Iteration,9,63,0.044231,5.869370
[MO833] Paramount Iteration,1,63,0.044089,5.887502
[MO833] Paramount Iteration,13,64,0.207868,6.092048
[MO833] Paramount Iteration,5,64,0.208082,6.094758
[MO833] Paramount Iteration,3,64,0.208748,6.078795
[MO833] Paramount Iteration,7,64,0.208716,6.094919
[MO833] Paramount Iteration,2,64,0.208403,6.086896
[MO833] Paramount Iteration,11,64,0.208376,6.094604
[MO833] Paramount Iteration,4,64,0.208733,6.094998
[MO833] Paramount Iteration,15,64,0.208291,6.094932
[MO833] Paramount Iteration,6,64,0.208433,6.095125
[MO833] Paramount Iteration,9,64,0.207933,6.077325
[MO833] Paramount Iteration,10,64,0.208197,6.094814
[MO833] Paramount Iteration,14,64,0.208102,6.095175
[MO833] Paramount Iteration,12,64,0.208750,6.092949
[MO833] Paramount Iteration,8,64,0.208955,6.081401
[MO833] Paramount Iteration,0,64,0.209075,6.095589
[MO833] Paramount Iteration,1,64,0.208197,6.095764
[MO833] Paramount Iteration,3,65,0.046700,6.125557
[MO833] Paramount Iteration,13,65,0.047220,6.139299
[MO833] Paramount Iteration,7,65,0.046827,6.141814
[MO833] Paramount Iteration,2,65,0.046945,6.133858
[MO833] Paramount Iteration,6,65,0.046873,6.142017
[MO833] Paramount Iteration,5,65,0.047074,6.141908
[MO833] Paramount Iteration,15,65,0.046886,6.141903
[MO833] Paramount Iteration,4,65,0.047003,6.142023
[MO833] Paramount Iteration,11,65,0.046973,6.141660
[MO833] Paramount Iteration,14,65,0.047000,6.142194
[MO833] Paramount Iteration,9,65,0.047103,6.124459
[MO833] Paramount Iteration,8,65,0.046830,6.128268
[MO833] Paramount Iteration,10,65,0.047118,6.141952
[MO833] Paramount Iteration,12,65,0.046968,6.139965
[MO833] Paramount Iteration,0,65,0.046962,6.142624
[MO833] Paramount Iteration,1,65,0.047166,6.142994
[MO833] Paramount Iteration,5,66,0.046903,6.188869
[MO833] Paramount Iteration,13,66,0.047044,6.186373
[MO833] Paramount Iteration,2,66,0.046999,6.180876
[MO833] Paramount Iteration,6,66,0.046893,6.188929
[MO833] Paramount Iteration,4,66,0.046951,6.188993
[MO833] Paramount Iteration,3,66,0.047240,6.172856
[MO833] Paramount Iteration,7,66,0.047187,6.189064
[MO833] Paramount Iteration,9,66,0.046915,6.171402
[MO833] Paramount Iteration,11,66,0.047121,6.188863
[MO833] Paramount Iteration,10,66,0.046985,6.188957
[MO833] Paramount Iteration,8,66,0.047075,6.175375
[MO833] Paramount Iteration,12,66,0.047005,6.187013
[MO833] Paramount Iteration,14,66,0.047193,6.189406
[MO833] Paramount Iteration,15,66,0.047523,6.189494
[MO833] Paramount Iteration,0,66,0.047013,6.189699
[MO833] Paramount Iteration,1,66,0.046859,6.189920
[MO833] Paramount Iteration,13,67,0.214777,6.401179
[MO833] Paramount Iteration,3,67,0.215101,6.388017
[MO833] Paramount Iteration,5,67,0.215163,6.404103
[MO833] Paramount Iteration,2,67,0.215162,6.396046
[MO833] Paramount Iteration,6,67,0.215231,6.404188
[MO833] Paramount Iteration,15,67,0.214623,6.404143
[MO833] Paramount Iteration,7,67,0.215088,6.404189
[MO833] Paramount Iteration,14,67,0.214851,6.404288
[MO833] Paramount Iteration,9,67,0.215130,6.386561
[MO833] Paramount Iteration,11,67,0.214996,6.403953
[MO833] Paramount Iteration,12,67,0.214872,6.401926
[MO833] Paramount Iteration,4,67,0.215363,6.404375
[MO833] Paramount Iteration,10,67,0.215037,6.404010
[MO833] Paramount Iteration,8,67,0.215203,6.390613
[MO833] Paramount Iteration,0,67,0.215027,6.404790
[MO833] Paramount Iteration,1,67,0.214888,6.404878
[MO833] Paramount Iteration,13,68,0.046009,6.447214
[MO833] Paramount Iteration,3,68,0.045687,6.433772
[MO833] Paramount Iteration,5,68,0.045759,6.449924
[MO833] Paramount Iteration,7,68,0.045774,6.450024
[MO833] Paramount Iteration,4,68,0.045684,6.450077
[MO833] Paramount Iteration,2,68,0.045961,6.442015
[MO833] Paramount Iteration,15,68,0.045949,6.450163
[MO833] Paramount Iteration,6,68,0.046087,6.450301
[MO833] Paramount Iteration,9,68,0.045891,6.432479
[MO833] Paramount Iteration,11,68,0.045827,6.449879
[MO833] Paramount Iteration,12,68,0.045923,6.447885
[MO833] Paramount Iteration,8,68,0.045697,6.436349
[MO833] Paramount Iteration,10,68,0.046065,6.450084
[MO833] Paramount Iteration,14,68,0.046098,6.450413
[MO833] Paramount Iteration,0,68,0.045877,6.450727
[MO833] Paramount Iteration,1,68,0.046121,6.451046
[MO833] Paramount Iteration,13,69,0.046437,6.493679
[MO833] Paramount Iteration,3,69,0.046516,6.480351
[MO833] Paramount Iteration,2,69,0.046362,6.488394
[MO833] Paramount Iteration,5,69,0.046494,6.496490
[MO833] Paramount Iteration,7,69,0.046696,6.496781
[MO833] Paramount Iteration,4,69,0.046685,6.496779
[MO833] Paramount Iteration,9,69,0.046505,6.479011
[MO833] Paramount Iteration,6,69,0.046524,6.496845
[MO833] Paramount Iteration,15,69,0.046528,6.496769
[MO833] Paramount Iteration,11,69,0.046572,6.496533
[MO833] Paramount Iteration,14,69,0.046478,6.496911
[MO833] Paramount Iteration,10,69,0.046520,6.496624
[MO833] Paramount Iteration,12,69,0.046600,6.494526
[MO833] Paramount Iteration,8,69,0.046677,6.483060
[MO833] Paramount Iteration,0,69,0.046475,6.497271
[MO833] Paramount Iteration,1,69,0.046266,6.497393
[MO833] Paramount Iteration,13,70,0.045696,6.539402
[MO833] Paramount Iteration,3,70,0.045431,6.525843
[MO833] Paramount Iteration,7,70,0.045236,6.542082
[MO833] Paramount Iteration,5,70,0.045582,6.542143
[MO833] Paramount Iteration,11,70,0.045199,6.541822
[MO833] Paramount Iteration,15,70,0.045307,6.542150
[MO833] Paramount Iteration,2,70,0.045800,6.534203
[MO833] Paramount Iteration,4,70,0.045517,6.542314
[MO833] Paramount Iteration,6,70,0.045620,6.542496
[MO833] Paramount Iteration,9,70,0.045664,6.524705
[MO833] Paramount Iteration,10,70,0.045482,6.542122
[MO833] Paramount Iteration,12,70,0.045500,6.540065
[MO833] Paramount Iteration,14,70,0.045572,6.542500
[MO833] Paramount Iteration,8,70,0.045437,6.528536
[MO833] Paramount Iteration,0,70,0.045427,6.542762
[MO833] Paramount Iteration,1,70,0.045694,6.543151
[MO833] Paramount Iteration,13,71,0.212391,6.751822
[MO833] Paramount Iteration,3,71,0.212391,6.738303
[MO833] Paramount Iteration,5,71,0.212248,6.754465
[MO833] Paramount Iteration,2,71,0.212359,6.746580
[MO833] Paramount Iteration,7,71,0.212506,6.754653
[MO833] Paramount Iteration,4,71,0.212355,6.754688
[MO833] Paramount Iteration,6,71,0.212284,6.754800
[MO833] Paramount Iteration,9,71,0.212248,6.736981
[MO833] Paramount Iteration,11,71,0.212450,6.754359
[MO833] Paramount Iteration,15,71,0.212481,6.754704
[MO833] Paramount Iteration,12,71,0.212309,6.752413
[MO833] Paramount Iteration,8,71,0.212256,6.740826
[MO833] Paramount Iteration,14,71,0.212412,6.754933
[MO833] Paramount Iteration,10,71,0.212502,6.754644
[MO833] Paramount Iteration,0,71,0.212313,6.755138
[MO833] Paramount Iteration,1,71,0.212244,6.755462
[MO833] Paramount Iteration,3,72,0.045864,6.784233
[MO833] Paramount Iteration,13,72,0.046016,6.797867
[MO833] Paramount Iteration,7,72,0.045855,6.800574
[MO833] Paramount Iteration,2,72,0.045938,6.792536
[MO833] Paramount Iteration,5,72,0.046059,6.800601
[MO833] Paramount Iteration,11,72,0.045776,6.800231
[MO833] Paramount Iteration,4,72,0.045979,6.800686
[MO833] Paramount Iteration,6,72,0.045940,6.800759
[MO833] Paramount Iteration,10,72,0.045857,6.800521
[MO833] Paramount Iteration,12,72,0.046015,6.798467
[MO833] Paramount Iteration,15,72,0.046145,6.800920
[MO833] Paramount Iteration,9,72,0.046240,6.783249
[MO833] Paramount Iteration,14,72,0.045997,6.800975
[MO833] Paramount Iteration,8,72,0.046179,6.787039
[MO833] Paramount Iteration,0,72,0.046129,6.801327
[MO833] Paramount Iteration,1,72,0.046081,6.801607
[MO833] Paramount Iteration,13,73,0.046843,6.844737
[MO833] Paramount Iteration,3,73,0.047003,6.831287
[MO833] Paramount Iteration,5,73,0.046744,6.847400
[MO833] Paramount Iteration,4,73,0.046765,6.847468
[MO833] Paramount Iteration,2,73,0.046895,6.839449
[MO833] Paramount Iteration,7,73,0.046933,6.847572
[MO833] Paramount Iteration,11,73,0.046890,6.847207
[MO833] Paramount Iteration,6,73,0.046872,6.847663
[MO833] Paramount Iteration,9,73,0.046733,6.830010
[MO833] Paramount Iteration,12,73,0.046854,6.845360
[MO833] Paramount Iteration,15,73,0.046695,6.847705
[MO833] Paramount Iteration,10,73,0.046911,6.847452
[MO833] Paramount Iteration,14,73,0.046909,6.847894
[MO833] Paramount Iteration,8,73,0.046977,6.834043
[MO833] Paramount Iteration,0,73,0.046879,6.848271
[MO833] Paramount Iteration,1,73,0.046887,6.848560
[MO833] Paramount Iteration,13,74,0.211466,7.056231
[MO833] Paramount Iteration,5,74,0.211360,7.058818
[MO833] Paramount Iteration,3,74,0.211467,7.042807
[MO833] Paramount Iteration,7,74,0.211316,7.058957
[MO833] Paramount Iteration,11,74,0.211333,7.058623
[MO833] Paramount Iteration,15,74,0.211180,7.058962
[MO833] Paramount Iteration,2,74,0.211524,7.050990
[MO833] Paramount Iteration,4,74,0.211519,7.059003
[MO833] Paramount Iteration,6,74,0.211477,7.059161
[MO833] Paramount Iteration,10,74,0.211335,7.058806
[MO833] Paramount Iteration,9,74,0.211425,7.041465
[MO833] Paramount Iteration,14,74,0.211260,7.059214
[MO833] Paramount Iteration,12,74,0.211470,7.056872
[MO833] Paramount Iteration,8,74,0.211356,7.045441
[MO833] Paramount Iteration,0,74,0.211322,7.059653
[MO833] Paramount Iteration,1,74,0.211304,7.059928
[MO833] Paramount Iteration,3,75,0.046739,7.089607
[MO833] Paramount Iteration,13,75,0.047120,7.103380
[MO833] Paramount Iteration,7,75,0.046924,7.105950
[MO833] Paramount Iteration,2,75,0.047008,7.098016
[MO833] Paramount Iteration,5,75,0.047167,7.106046
[MO833] Paramount Iteration,4,75,0.047086,7.106109
[MO833] Paramount Iteration,11,75,0.047034,7.105746
[MO833] Paramount Iteration,15,75,0.047092,7.106125
[MO833] Paramount Iteration,6,75,0.047105,7.106285
[MO833] Paramount Iteration,12,75,0.047007,7.103922
[MO833] Paramount Iteration,10,75,0.047242,7.106067
[MO833] Paramount Iteration,14,75,0.047254,7.106488
[MO833] Paramount Iteration,8,75,0.047088,7.092567
[MO833] Paramount Iteration,9,75,0.047376,7.088871
[MO833] Paramount Iteration,0,75,0.047050,7.106762
[MO833] Paramount Iteration,1,75,0.047247,7.107269
[MO833] Paramount Iteration,13,76,0.046574,7.149981
[MO833] Paramount Iteration,3,76,0.046802,7.136467
[MO833] Paramount Iteration,5,76,0.046485,7.152591
[MO833] Paramount Iteration,7,76,0.046678,7.152693
[MO833] Paramount Iteration,11,76,0.046475,7.152286
[MO833] Paramount Iteration,15,76,0.046462,7.152662
[MO833] Paramount Iteration,2,76,0.046720,7.144753
[MO833] Paramount Iteration,4,76,0.046673,7.152798
[MO833] Paramount Iteration,9,76,0.046185,7.135079
[MO833] Paramount Iteration,8,76,0.046313,7.138956
[MO833] Paramount Iteration,10,76,0.046524,7.152610
[MO833] Paramount Iteration,6,76,0.046766,7.153070
[MO833] Paramount Iteration,12,76,0.046644,7.150605
[MO833] Paramount Iteration,14,76,0.046544,7.153052
[MO833] Paramount Iteration,0,76,0.046489,7.153314
[MO833] Paramount Iteration,1,76,0.046179,7.153516
[MO833] Paramount Iteration,13,77,0.046254,7.196264
[MO833] Paramount Iteration,5,77,0.046138,7.198802
[MO833] Paramount Iteration,2,77,0.046118,7.190889
[MO833] Paramount Iteration,3,77,0.046356,7.182880
[MO833] Paramount Iteration,4,77,0.046247,7.199089
[MO833] Paramount Iteration,9,77,0.046249,7.181358
[MO833] Paramount Iteration,11,77,0.046465,7.198819
[MO833] Paramount Iteration,6,77,0.046160,7.199249
[MO833] Paramount Iteration,10,77,0.046243,7.198873
[MO833] Paramount Iteration,7,77,0.046473,7.199233
[MO833] Paramount Iteration,8,77,0.046305,7.185297
[MO833] Paramount Iteration,12,77,0.046357,7.197001
[MO833] Paramount Iteration,0,77,0.046127,7.199506
[MO833] Paramount Iteration,1,77,0.046046,7.199625
[MO833] Paramount Iteration,14,77,0.046571,7.199644
[MO833] Paramount Iteration,15,77,0.046887,7.199618
[MO833] Paramount Iteration,13,78,0.210516,7.406810
[MO833] Paramount Iteration,5,78,0.210705,7.409532
[MO833] Paramount Iteration,3,78,0.210615,7.393553
[MO833] Paramount Iteration,2,78,0.210678,7.401579
[MO833] Paramount Iteration,7,78,0.210405,7.409712
[MO833] Paramount Iteration,4,78,0.210627,7.409752
[MO833] Paramount Iteration,6,78,0.210549,7.409819
[MO833] Paramount Iteration,9,78,0.210595,7.392038
[MO833] Paramount Iteration,11,78,0.210502,7.409409
[MO833] Paramount Iteration,15,78,0.210061,7.409762
[MO833] Paramount Iteration,10,78,0.210627,7.409509
[MO833] Paramount Iteration,12,78,0.210458,7.407503
[MO833] Paramount Iteration,14,78,0.210276,7.409928
[MO833] Paramount Iteration,8,78,0.210634,7.395978
[MO833] Paramount Iteration,0,78,0.210642,7.410209
[MO833] Paramount Iteration,1,78,0.210737,7.410424
[MO833] Paramount Iteration,3,79,0.046934,7.440553
[MO833] Paramount Iteration,13,79,0.047529,7.454367
[MO833] Paramount Iteration,2,79,0.047231,7.448819
[MO833] Paramount Iteration,7,79,0.047108,7.456899
[MO833] Paramount Iteration,4,79,0.047055,7.456840
[MO833] Paramount Iteration,11,79,0.047028,7.456530
[MO833] Paramount Iteration,5,79,0.047411,7.456967
[MO833] Paramount Iteration,15,79,0.047064,7.456910
[MO833] Paramount Iteration,6,79,0.047304,7.457145
[MO833] Paramount Iteration,10,79,0.047333,7.456874
[MO833] Paramount Iteration,12,79,0.047249,7.454793
[MO833] Paramount Iteration,14,79,0.047262,7.457209
[MO833] Paramount Iteration,8,79,0.047183,7.443209
[MO833] Paramount Iteration,0,79,0.047053,7.457324
[MO833] Paramount Iteration,9,79,0.047446,7.439576
[MO833] Paramount Iteration,1,79,0.047235,7.457727
[MO833] Paramount Iteration,13,80,0.045472,7.499868
[MO833] Paramount Iteration,2,80,0.045649,7.494486
[MO833] Paramount Iteration,3,80,0.046023,7.486635
[MO833] Paramount Iteration,6,80,0.045573,7.502737
[MO833] Paramount Iteration,5,80,0.045688,7.502672
[MO833] Paramount Iteration,9,80,0.045426,7.485066
[MO833] Paramount Iteration,10,80,0.045604,7.502498
[MO833] Paramount Iteration,7,80,0.046002,7.502967
[MO833] Paramount Iteration,14,80,0.045648,7.502876
[MO833] Paramount Iteration,4,80,0.046066,7.502963
[MO833] Paramount Iteration,11,80,0.046050,7.502674
[MO833] Paramount Iteration,15,80,0.046094,7.503075
[MO833] Paramount Iteration,0,80,0.045739,7.503116
[MO833] Paramount Iteration,8,80,0.045773,7.489060
[MO833] Paramount Iteration,12,80,0.045882,7.500717
[MO833] Paramount Iteration,1,80,0.045590,7.503383
[MO833] Paramount Iteration,13,81,0.213626,7.713524
[MO833] Paramount Iteration,2,81,0.213563,7.708075
[MO833] Paramount Iteration,6,81,0.213442,7.716207
[MO833] Paramount Iteration,5,81,0.213468,7.716166
[MO833] Paramount Iteration,3,81,0.213643,7.700310
[MO833] Paramount Iteration,4,81,0.213397,7.716412
[MO833] Paramount Iteration,10,81,0.213608,7.716139
[MO833] Paramount Iteration,14,81,0.213566,7.716473
[MO833] Paramount Iteration,0,81,0.213443,7.716608
[MO833] Paramount Iteration,7,81,0.213638,7.716642
[MO833] Paramount Iteration,1,81,0.213192,7.716635
[MO833] Paramount Iteration,12,81,0.213474,7.714234
[MO833] Paramount Iteration,11,81,0.213721,7.716432
[MO833] Paramount Iteration,9,81,0.213923,7.699086
[MO833] Paramount Iteration,15,81,0.213793,7.716906
[MO833] Paramount Iteration,8,81,0.213921,7.703028
[MO833] Paramount Iteration,13,82,0.045788,7.759341
[MO833] Paramount Iteration,3,82,0.045425,7.745774
[MO833] Paramount Iteration,7,82,0.045405,7.762085
[MO833] Paramount Iteration,5,82,0.045851,7.762055
[MO833] Paramount Iteration,15,82,0.045131,7.762080
[MO833] Paramount Iteration,2,82,0.046031,7.754133
[MO833] Paramount Iteration,11,82,0.045344,7.761814
[MO833] Paramount Iteration,4,82,0.045875,7.762322
[MO833] Paramount Iteration,6,82,0.046240,7.762477
[MO833] Paramount Iteration,9,82,0.045445,7.744664
[MO833] Paramount Iteration,10,82,0.045968,7.762137
[MO833] Paramount Iteration,14,82,0.045958,7.762462
[MO833] Paramount Iteration,12,82,0.045807,7.760082
[MO833] Paramount Iteration,0,82,0.046012,7.762681
[MO833] Paramount Iteration,8,82,0.045610,7.748685
[MO833] Paramount Iteration,1,82,0.046277,7.762919
[MO833] Paramount Iteration,13,83,0.045510,7.804880
[MO833] Paramount Iteration,3,83,0.045596,7.791427
[MO833] Paramount Iteration,2,83,0.045320,7.799472
[MO833] Paramount Iteration,7,83,0.045425,7.807576
[MO833] Paramount Iteration,5,83,0.045438,7.807520
[MO833] Paramount Iteration,6,83,0.045266,7.807762
[MO833] Paramount Iteration,15,83,0.045570,7.807719
[MO833] Paramount Iteration,4,83,0.045447,7.807804
[MO833] Paramount Iteration,9,83,0.045363,7.790150
[MO833] Paramount Iteration,14,83,0.045405,7.807910
[MO833] Paramount Iteration,11,83,0.045677,7.807584
[MO833] Paramount Iteration,10,83,0.045473,7.807630
[MO833] Paramount Iteration,12,83,0.045545,7.805665
[MO833] Paramount Iteration,0,83,0.045368,7.808108
[MO833] Paramount Iteration,8,83,0.045353,7.794088
[MO833] Paramount Iteration,1,83,0.045296,7.808276
[MO833] Paramount Iteration,13,84,0.045760,7.850669
[MO833] Paramount Iteration,3,84,0.045760,7.837241
[MO833] Paramount Iteration,5,84,0.045719,7.853266
[MO833] Paramount Iteration,7,84,0.045841,7.853481
[MO833] Paramount Iteration,4,84,0.045610,7.853449
[MO833] Paramount Iteration,2,84,0.045963,7.845461
[MO833] Paramount Iteration,11,84,0.045633,7.853324
[MO833] Paramount Iteration,12,84,0.045599,7.851302
[MO833] Paramount Iteration,15,84,0.045889,7.853683
[MO833] Paramount Iteration,6,84,0.046068,7.853848
[MO833] Paramount Iteration,9,84,0.045792,7.836049
[MO833] Paramount Iteration,10,84,0.045921,7.853560
[MO833] Paramount Iteration,14,84,0.045996,7.853951
[MO833] Paramount Iteration,8,84,0.045829,7.839964
[MO833] Paramount Iteration,0,84,0.045853,7.854039
[MO833] Paramount Iteration,1,84,0.045731,7.854069
[MO833] Paramount Iteration,13,85,0.209120,8.059819
[MO833] Paramount Iteration,5,85,0.209216,8.062508
[MO833] Paramount Iteration,15,85,0.208733,8.062495
[MO833] Paramount Iteration,3,85,0.209292,8.046590
[MO833] Paramount Iteration,9,85,0.208795,8.044955
[MO833] Paramount Iteration,14,85,0.208664,8.062661
[MO833] Paramount Iteration,2,85,0.209199,8.054678
[MO833] Paramount Iteration,7,85,0.209222,8.062784
[MO833] Paramount Iteration,6,85,0.208991,8.062859
[MO833] Paramount Iteration,11,85,0.209034,8.062454
[MO833] Paramount Iteration,4,85,0.209415,8.062897
[MO833] Paramount Iteration,8,85,0.208927,8.048938
[MO833] Paramount Iteration,10,85,0.208992,8.062569
[MO833] Paramount Iteration,0,85,0.208952,8.063040
[MO833] Paramount Iteration,12,85,0.209310,8.060653
[MO833] Paramount Iteration,1,85,0.209060,8.063207
[MO833] Paramount Iteration,13,86,0.048031,8.107880
[MO833] Paramount Iteration,7,86,0.047848,8.110702
[MO833] Paramount Iteration,3,86,0.048037,8.094688
[MO833] Paramount Iteration,5,86,0.048175,8.110713
[MO833] Paramount Iteration,2,86,0.048036,8.102730
[MO833] Paramount Iteration,15,86,0.048209,8.110773
[MO833] Paramount Iteration,6,86,0.047973,8.110867
[MO833] Paramount Iteration,9,86,0.048246,8.093230
[MO833] Paramount Iteration,14,86,0.048275,8.110978
[MO833] Paramount Iteration,4,86,0.048135,8.111071
[MO833] Paramount Iteration,8,86,0.048180,8.097155
[MO833] Paramount Iteration,12,86,0.048148,8.108846
[MO833] Paramount Iteration,11,86,0.048502,8.111032
[MO833] Paramount Iteration,0,86,0.048423,8.111520
[MO833] Paramount Iteration,10,86,0.048544,8.111160
[MO833] Paramount Iteration,1,86,0.048549,8.111818
[MO833] Paramount Iteration,3,87,0.047812,8.142561
[MO833] Paramount Iteration,7,87,0.047871,8.158638
[MO833] Paramount Iteration,6,87,0.047960,8.158863
[MO833] Paramount Iteration,4,87,0.047658,8.158769
[MO833] Paramount Iteration,15,87,0.047927,8.158767
[MO833] Paramount Iteration,2,87,0.048071,8.150810
[MO833] Paramount Iteration,11,87,0.047406,8.158539
[MO833] Paramount Iteration,5,87,0.048217,8.158958
[MO833] Paramount Iteration,13,87,0.048598,8.156507
[MO833] Paramount Iteration,14,87,0.047933,8.158967
[MO833] Paramount Iteration,8,87,0.047870,8.145059
[MO833] Paramount Iteration,10,87,0.047609,8.158818
[MO833] Paramount Iteration,9,87,0.048214,8.141475
[MO833] Paramount Iteration,12,87,0.047933,8.156829
[MO833] Paramount Iteration,0,87,0.047948,8.159526
[MO833] Paramount Iteration,1,87,0.048366,8.160257
[MO833] Paramount Iteration,3,88,0.047431,8.190050
[MO833] Paramount Iteration,13,88,0.047231,8.203769
[MO833] Paramount Iteration,7,88,0.047688,8.206388
[MO833] Paramount Iteration,2,88,0.047539,8.198368
[MO833] Paramount Iteration,5,88,0.047451,8.206427
[MO833] Paramount Iteration,15,88,0.047706,8.206545
[MO833] Paramount Iteration,6,88,0.047799,8.206682
[MO833] Paramount Iteration,11,88,0.047601,8.206236
[MO833] Paramount Iteration,4,88,0.047839,8.206669
[MO833] Paramount Iteration,9,88,0.047452,8.188944
[MO833] Paramount Iteration,14,88,0.047799,8.206810
[MO833] Paramount Iteration,8,88,0.047748,8.192877
[MO833] Paramount Iteration,0,88,0.047341,8.206931
[MO833] Paramount Iteration,12,88,0.047635,8.204499
[MO833] Paramount Iteration,10,88,0.047773,8.206610
[MO833] Paramount Iteration,1,88,0.046964,8.207296
[MO833] Paramount Iteration,13,89,0.218108,8.421964
[MO833] Paramount Iteration,3,89,0.218545,8.408652
[MO833] Paramount Iteration,5,89,0.218282,8.424737
[MO833] Paramount Iteration,2,89,0.218431,8.416817
[MO833] Paramount Iteration,11,89,0.218203,8.424530
[MO833] Paramount Iteration,6,89,0.218335,8.425036
[MO833] Paramount Iteration,7,89,0.218594,8.425044
[MO833] Paramount Iteration,4,89,0.218306,8.425009
[MO833] Paramount Iteration,9,89,0.218225,8.407259
[MO833] Paramount Iteration,10,89,0.218085,8.424717
[MO833] Paramount Iteration,15,89,0.218461,8.425074
[MO833] Paramount Iteration,12,89,0.218198,8.422746
[MO833] Paramount Iteration,8,89,0.218271,8.411195
[MO833] Paramount Iteration,14,89,0.218368,8.425220
[MO833] Paramount Iteration,0,89,0.218612,8.425594
[MO833] Paramount Iteration,1,89,0.218432,8.425794
[MO833] Paramount Iteration,3,90,0.049032,8.457745
[MO833] Paramount Iteration,13,90,0.049360,8.471394
[MO833] Paramount Iteration,2,90,0.049169,8.466019
[MO833] Paramount Iteration,7,90,0.049013,8.474122
[MO833] Paramount Iteration,5,90,0.049316,8.474080
[MO833] Paramount Iteration,11,90,0.049106,8.473723
[MO833] Paramount Iteration,9,90,0.049096,8.456446
[MO833] Paramount Iteration,4,90,0.049263,8.474307
[MO833] Paramount Iteration,15,90,0.049136,8.474285
[MO833] Paramount Iteration,6,90,0.049382,8.474445
[MO833] Paramount Iteration,10,90,0.049277,8.474014
[MO833] Paramount Iteration,12,90,0.049175,8.471965
[MO833] Paramount Iteration,8,90,0.049170,8.460387
[MO833] Paramount Iteration,14,90,0.049401,8.474639
[MO833] Paramount Iteration,0,90,0.049146,8.474806
[MO833] Paramount Iteration,1,90,0.049172,8.475031
[MO833] Paramount Iteration,13,91,0.048537,8.520018
[MO833] Paramount Iteration,3,91,0.048892,8.506695
[MO833] Paramount Iteration,5,91,0.048603,8.522711
[MO833] Paramount Iteration,2,91,0.048732,8.514769
[MO833] Paramount Iteration,15,91,0.048431,8.522791
[MO833] Paramount Iteration,7,91,0.048786,8.522977
[MO833] Paramount Iteration,9,91,0.048675,8.505206
[MO833] Paramount Iteration,11,91,0.048792,8.522599
[MO833] Paramount Iteration,14,91,0.048286,8.522946
[MO833] Paramount Iteration,6,91,0.048573,8.523038
[MO833] Paramount Iteration,4,91,0.048692,8.523033
[MO833] Paramount Iteration,10,91,0.048629,8.522663
[MO833] Paramount Iteration,8,91,0.048706,8.509115
[MO833] Paramount Iteration,12,91,0.048728,8.520739
[MO833] Paramount Iteration,0,91,0.048751,8.523622
[MO833] Paramount Iteration,1,91,0.048642,8.523746
[MO833] Paramount Iteration,3,92,0.047772,8.554526
[MO833] Paramount Iteration,2,92,0.047836,8.562623
[MO833] Paramount Iteration,13,92,0.048164,8.568267
[MO833] Paramount Iteration,7,92,0.047752,8.570800
[MO833] Paramount Iteration,4,92,0.047727,8.570797
[MO833] Paramount Iteration,15,92,0.047929,8.570790
[MO833] Paramount Iteration,5,92,0.048086,8.570826
[MO833] Paramount Iteration,6,92,0.047984,8.571031
[MO833] Paramount Iteration,11,92,0.047855,8.570562
[MO833] Paramount Iteration,14,92,0.048112,8.571076
[MO833] Paramount Iteration,10,92,0.048119,8.570798
[MO833] Paramount Iteration,12,92,0.047931,8.568715
[MO833] Paramount Iteration,8,92,0.048022,8.557158
[MO833] Paramount Iteration,9,92,0.048281,8.553569
[MO833] Paramount Iteration,0,92,0.047673,8.571356
[MO833] Paramount Iteration,1,92,0.048152,8.571961
[MO833] Paramount Iteration,7,93,0.223141,8.794008
[MO833] Paramount Iteration,13,93,0.223154,8.791507
[MO833] Paramount Iteration,3,93,0.223384,8.777967
[MO833] Paramount Iteration,15,93,0.223151,8.794014
[MO833] Paramount Iteration,2,93,0.223561,8.786200
[MO833] Paramount Iteration,6,93,0.223225,8.794277
[MO833] Paramount Iteration,4,93,0.223331,8.794194
[MO833] Paramount Iteration,11,93,0.223174,8.793829
[MO833] Paramount Iteration,5,93,0.223384,8.794218
[MO833] Paramount Iteration,8,93,0.223133,8.780324
[MO833] Paramount Iteration,12,93,0.223150,8.791909
[MO833] Paramount Iteration,14,93,0.223207,8.794305
[MO833] Paramount Iteration,10,93,0.223312,8.794130
[MO833] Paramount Iteration,9,93,0.223237,8.776855
[MO833] Paramount Iteration,0,93,0.223262,8.794676
[MO833] Paramount Iteration,1,93,0.223184,8.795216
[MO833] Paramount Iteration,13,94,0.048687,8.840280
[MO833] Paramount Iteration,3,94,0.048894,8.826933
[MO833] Paramount Iteration,2,94,0.048749,8.834965
[MO833] Paramount Iteration,6,94,0.048906,8.843204
[MO833] Paramount Iteration,5,94,0.048887,8.843113
[MO833] Paramount Iteration,7,94,0.049102,8.843176
[MO833] Paramount Iteration,9,94,0.048560,8.825452
[MO833] Paramount Iteration,15,94,0.049054,8.843135
[MO833] Paramount Iteration,14,94,0.048854,8.843181
[MO833] Paramount Iteration,4,94,0.049034,8.843295
[MO833] Paramount Iteration,8,94,0.048978,8.829333
[MO833] Paramount Iteration,11,94,0.049014,8.842938
[MO833] Paramount Iteration,12,94,0.049014,8.840968
[MO833] Paramount Iteration,10,94,0.048915,8.843065
[MO833] Paramount Iteration,0,94,0.049055,8.843792
[MO833] Paramount Iteration,1,94,0.048668,8.843953
[MO833] Paramount Iteration,3,95,0.047732,8.874725
[MO833] Paramount Iteration,13,95,0.047972,8.888336
[MO833] Paramount Iteration,2,95,0.048004,8.882977
[MO833] Paramount Iteration,7,95,0.047804,8.891047
[MO833] Paramount Iteration,11,95,0.047637,8.890667
[MO833] Paramount Iteration,15,95,0.047794,8.891002
[MO833] Paramount Iteration,5,95,0.047861,8.891051
[MO833] Paramount Iteration,9,95,0.047914,8.873442
[MO833] Paramount Iteration,6,95,0.048100,8.891312
[MO833] Paramount Iteration,14,95,0.048091,8.891281
[MO833] Paramount Iteration,10,95,0.047885,8.890973
[MO833] Paramount Iteration,8,95,0.047988,8.877341
[MO833] Paramount Iteration,4,95,0.048065,8.891379
[MO833] Paramount Iteration,12,95,0.047926,8.888944
[MO833] Paramount Iteration,0,95,0.047954,8.891810
[MO833] Paramount Iteration,1,95,0.048017,8.892040
[MO833] Paramount Iteration,13,96,0.048792,8.937190
[MO833] Paramount Iteration,3,96,0.048864,8.923645
[MO833] Paramount Iteration,2,96,0.048899,8.931894
[MO833] Paramount Iteration,7,96,0.048815,8.939931
[MO833] Paramount Iteration,5,96,0.048784,8.939923
[MO833] Paramount Iteration,15,96,0.048973,8.940044
[MO833] Paramount Iteration,6,96,0.048865,8.940196
[MO833] Paramount Iteration,4,96,0.048730,8.940129
[MO833] Paramount Iteration,9,96,0.048942,8.922470
[MO833] Paramount Iteration,11,96,0.049054,8.939806
[MO833] Paramount Iteration,12,96,0.048902,8.937890
[MO833] Paramount Iteration,14,96,0.049021,8.940323
[MO833] Paramount Iteration,8,96,0.048990,8.926351
[MO833] Paramount Iteration,10,96,0.049092,8.940085
[MO833] Paramount Iteration,0,96,0.048852,8.940728
[MO833] Paramount Iteration,1,96,0.048907,8.941023
[MO833] Paramount Iteration,13,97,0.218390,9.155663
[MO833] Paramount Iteration,5,97,0.218408,9.158392
[MO833] Paramount Iteration,6,97,0.218345,9.158562
[MO833] Paramount Iteration,7,97,0.218545,9.158543
[MO833] Paramount Iteration,3,97,0.218838,9.142540
[MO833] Paramount Iteration,2,97,0.218676,9.150587
[MO833] Paramount Iteration,4,97,0.218466,9.158615
[MO833] Paramount Iteration,9,97,0.218460,9.141015
[MO833] Paramount Iteration,15,97,0.218609,9.158727
[MO833] Paramount Iteration,14,97,0.218438,9.158781
[MO833] Paramount Iteration,8,97,0.218538,9.144911
[MO833] Paramount Iteration,11,97,0.218611,9.158511
[MO833] Paramount Iteration,12,97,0.218526,9.156462
[MO833] Paramount Iteration,10,97,0.218463,9.158588
[MO833] Paramount Iteration,0,97,0.218478,9.159272
[MO833] Paramount Iteration,1,97,0.218325,9.159417
[MO833] Paramount Iteration,3,98,0.047815,9.190420
[MO833] Paramount Iteration,13,98,0.048307,9.204040
[MO833] Paramount Iteration,7,98,0.047997,9.206630
[MO833] Paramount Iteration,2,98,0.048132,9.198729
[MO833] Paramount Iteration,6,98,0.048248,9.206824
[MO833] Paramount Iteration,5,98,0.048293,9.206764
[MO833] Paramount Iteration,11,98,0.047823,9.206409
[MO833] Paramount Iteration,15,98,0.047990,9.206793
[MO833] Paramount Iteration,4,98,0.048317,9.206952
[MO833] Paramount Iteration,9,98,0.048193,9.189296
[MO833] Paramount Iteration,10,98,0.048095,9.206700
[MO833] Paramount Iteration,12,98,0.048119,9.204629
[MO833] Paramount Iteration,8,98,0.048191,9.193121
[MO833] Paramount Iteration,14,98,0.048346,9.207137
[MO833] Paramount Iteration,0,98,0.048051,9.207386
[MO833] Paramount Iteration,1,98,0.048425,9.207908
[MO833] Paramount Iteration,3,99,0.047421,9.237902
[MO833] Paramount Iteration,13,99,0.047380,9.251505
[MO833] Paramount Iteration,7,99,0.047494,9.254186
[MO833] Paramount Iteration,15,99,0.047310,9.254172
[MO833] Paramount Iteration,2,99,0.047462,9.246210
[MO833] Paramount Iteration,11,99,0.047411,9.253906
[MO833] Paramount Iteration,5,99,0.047453,9.254280
[MO833] Paramount Iteration,4,99,0.047365,9.254361
[MO833] Paramount Iteration,6,99,0.047633,9.254476
[MO833] Paramount Iteration,10,99,0.047450,9.254170
[MO833] Paramount Iteration,12,99,0.047399,9.252070
[MO833] Paramount Iteration,14,99,0.047337,9.254495
[MO833] Paramount Iteration,9,99,0.047472,9.236852
[MO833] Paramount Iteration,8,99,0.047467,9.240632
[MO833] Paramount Iteration,0,99,0.047590,9.255041
[MO833] Paramount Iteration,1,99,0.047403,9.255384
     100   0.97370899   0.44244116    20.501568    22.404572    4.6905307 
[MO833] Paramount Iteration,2,100,0.240374,9.486603
[MO833] Paramount Iteration,6,100,0.240234,9.494729
[MO833] Paramount Iteration,4,100,0.240199,9.494620
[MO833] Paramount Iteration,8,100,0.239954,9.480622
[MO833] Paramount Iteration,10,100,0.240105,9.494296
[MO833] Paramount Iteration,12,100,0.240078,9.492221
[MO833] Paramount Iteration,14,100,0.240147,9.494661
[MO833] Paramount Iteration,1,100,0.239176,9.494628
[MO833] Paramount Iteration,3,100,0.240643,9.478601
[MO833] Paramount Iteration,7,100,0.240467,9.494718
[MO833] Paramount Iteration,5,100,0.240267,9.494620
[MO833] Paramount Iteration,9,100,0.239989,9.476922
[MO833] Paramount Iteration,11,100,0.240317,9.494290
[MO833] Paramount Iteration,13,100,0.240648,9.492221
[MO833] Paramount Iteration,15,100,0.240421,9.494661
[MO833] Paramount Iteration,0,100,0.239614,9.494721
Loop time of 8.74309 on 16 procs for 100 steps with 2048000 atoms

Performance: 11858.508 tau/day, 11.438 timesteps/s
93.9% CPU use with 16 MPI tasks x 1 OpenMP threads

MPI task timing breakdown:
Section |  min time  |  avg time  |  max time  |%varavg| %total
---------------------------------------------------------------
Pair    | 1.5298     | 1.747      | 1.9395     |  10.3 | 19.98
Bond    | 0.62398    | 0.79924    | 0.98681    |  13.7 |  9.14
Neigh   | 3.8081     | 3.8195     | 3.8333     |   0.4 | 43.69
Comm    | 0.72003    | 1.0842     | 1.4808     |  25.2 | 12.40
Output  | 0.001478   | 0.0020482  | 0.0025706  |   0.5 |  0.02
Modify  | 0.93163    | 0.98375    | 1.0775     |   3.7 | 11.25
Other   |            | 0.3074     |            |       |  3.52

Nlocal:    128000 ave 128092 max 127945 min
Histogram: 1 4 3 0 3 3 1 0 0 1
Nghost:    24499.1 ave 24615 max 24407 min
Histogram: 3 0 1 1 6 1 1 1 1 1
Neighs:    623046 ave 623809 max 622608 min
Histogram: 3 3 2 0 3 3 0 1 0 1

Total # of neighbors = 9968733
Ave neighs/atom = 4.86755
Ave special neighs/atom = 1.98
Neighbor list builds = 26
Dangerous builds = 0
Total wall time: 0:00:09
[MO833] Beta,1,0.090183
[MO833] Beta,3,0.088325
[MO833] PI avg,3,0.087430,100
[MO833] Beta,11,0.090142
[MO833] Beta,6,0.090194
[MO833] PI avg,6,0.087429,100
[MO833] Beta,10,0.090151
[MO833] PI avg,10,0.087429,100
[MO833] Beta,13,0.089913
[MO833] PI avg,13,0.087429,100
[MO833] Beta,7,0.090189
[MO833] Beta,4,0.090193
[MO833] PI avg,4,0.087429,100
[MO833] Beta,9,0.088156
[MO833] PI avg,9,0.087430,100
[MO833] PI avg,11,0.087429,100
[MO833] Beta,14,0.090190
[MO833] PI avg,14,0.087429,100
[MO833] PI avg,7,0.087430,100
[MO833] PI avg,1,0.087429,100
[MO833] Beta,5,0.090206
[MO833] PI avg,5,0.087429,100
[MO833] Beta,8,0.088611
[MO833] PI avg,8,0.087430,100
[MO833] Beta,0,0.090260
[MO833] PI avg,0,0.087430,100
[MO833] Total time,9.532111
[MO833] Beta,2,0.089315
[MO833] PI avg,2,0.087430,100
[MO833] Beta,12,0.090019
[MO833] PI avg,12,0.087429,100
[MO833] Beta,15,0.090269
[MO833] PI avg,15,0.087429,100
