LAMMPS (3 Mar 2020)
OMP_NUM_THREADS environment is not set. Defaulting to 1 thread. (src/comm.cpp:94)
  using 1 OpenMP thread(s) per MPI task
Reading data file ...
  orthogonal box = (-16.796 -16.796 -16.796) to (16.796 16.796 16.796)
  2 by 2 by 2 MPI processor grid
  reading atoms ...
  32000 atoms
  reading velocities ...
  32000 velocities
  scanning bonds ...
  1 = max bonds/atom
  reading bonds ...
  31680 bonds
Finding 1-2 1-3 1-4 neighbors ...
  special bond factors lj:   0          1          1         
  special bond factors coul: 0          1          1         
  2 = max # of 1-2 neighbors
  2 = max # of special neighbors
  special bonds CPU = 0.0055337 secs
  read_data CPU = 0.165507 secs
Replicating atoms ...
  orthogonal box = (-16.796 -16.796 -16.796) to (117.572 117.572 117.572)
  2 by 2 by 2 MPI processor grid
  2048000 atoms
  2027520 bonds
Finding 1-2 1-3 1-4 neighbors ...
  special bond factors lj:   0          1          1         
  special bond factors coul: 0          1          1         
  2 = max # of 1-2 neighbors
  2 = max # of special neighbors
  special bonds CPU = 0.150248 secs
  replicate CPU = 0.310018 secs
Neighbor list info ...
  update every 1 steps, delay 1 steps, check yes
  max neighbors/atom: 2000, page size: 100000
  master list distance cutoff = 1.52
  ghost atom cutoff = 1.52
  binsize = 0.76, bins = 177 177 177
  1 neighbor lists, perpetual/occasional/extra = 1 0 0
  (1) pair lj/cut, perpetual
      attributes: half, newton on
      pair build: half/bin/newton
      stencil: half/bin/3d/newton
      bin: standard
Setting up Verlet run ...
  Unit style    : lj
  Current step  : 0
  Time step     : 0.012
WARNING: Communication cutoff 1.52 is shorter than a bond length based estimate of 1.855. This may lead to errors. (src/comm.cpp:686)
Per MPI rank memory allocation (min/avg/max) = 92.32 | 92.32 | 92.32 Mbytes
Step Temp E_pair E_mol TotEng Press 
       0   0.97026787   0.44484087    20.494523    22.394765    4.6721833 
[MO833] Paramount Iteration,1,1,0.073378,1.181193
[MO833] Paramount Iteration,0,1,0.073682,1.181520
[MO833] Paramount Iteration,2,1,0.073639,1.181043
[MO833] Paramount Iteration,6,1,0.073655,1.181503
[MO833] Paramount Iteration,3,1,0.073767,1.181177
[MO833] Paramount Iteration,5,1,0.074042,1.181794
[MO833] Paramount Iteration,7,1,0.074208,1.182056
[MO833] Paramount Iteration,4,1,0.074226,1.181977
[MO833] Paramount Iteration,1,2,0.075135,1.256415
[MO833] Paramount Iteration,6,2,0.074997,1.256551
[MO833] Paramount Iteration,0,2,0.075114,1.256707
[MO833] Paramount Iteration,2,2,0.075190,1.256315
[MO833] Paramount Iteration,5,2,0.074836,1.256679
[MO833] Paramount Iteration,3,2,0.075477,1.256683
[MO833] Paramount Iteration,4,2,0.074968,1.257027
[MO833] Paramount Iteration,7,2,0.075135,1.257249
[MO833] Paramount Iteration,1,3,0.074276,1.330838
[MO833] Paramount Iteration,0,3,0.074171,1.330891
[MO833] Paramount Iteration,2,3,0.074039,1.330438
[MO833] Paramount Iteration,3,3,0.073888,1.330594
[MO833] Paramount Iteration,6,3,0.074427,1.331012
[MO833] Paramount Iteration,5,3,0.074252,1.330966
[MO833] Paramount Iteration,4,3,0.074018,1.331094
[MO833] Paramount Iteration,7,3,0.074122,1.331436
[MO833] Paramount Iteration,0,4,0.377864,1.708764
[MO833] Paramount Iteration,6,4,0.377615,1.708664
[MO833] Paramount Iteration,2,4,0.378077,1.708603
[MO833] Paramount Iteration,4,4,0.377850,1.709005
[MO833] Paramount Iteration,5,4,0.378297,1.709308
[MO833] Paramount Iteration,1,4,0.378524,1.709561
[MO833] Paramount Iteration,3,4,0.378602,1.709216
[MO833] Paramount Iteration,7,4,0.378151,1.709635
[MO833] Paramount Iteration,0,5,0.081175,1.789969
[MO833] Paramount Iteration,2,5,0.080833,1.789519
[MO833] Paramount Iteration,6,5,0.081187,1.789884
[MO833] Paramount Iteration,1,5,0.080299,1.789926
[MO833] Paramount Iteration,3,5,0.080429,1.789669
[MO833] Paramount Iteration,5,5,0.080851,1.790180
[MO833] Paramount Iteration,7,5,0.080660,1.790344
[MO833] Paramount Iteration,4,5,0.081206,1.790290
[MO833] Paramount Iteration,0,6,0.080999,1.870976
[MO833] Paramount Iteration,1,6,0.080779,1.870945
[MO833] Paramount Iteration,2,6,0.080948,1.870549
[MO833] Paramount Iteration,5,6,0.080634,1.870846
[MO833] Paramount Iteration,4,6,0.080636,1.870958
[MO833] Paramount Iteration,3,6,0.081021,1.870711
[MO833] Paramount Iteration,6,6,0.081156,1.871075
[MO833] Paramount Iteration,7,6,0.081038,1.871442
[MO833] Paramount Iteration,6,7,0.080678,1.951786
[MO833] Paramount Iteration,4,7,0.080840,1.951828
[MO833] Paramount Iteration,0,7,0.080994,1.951983
[MO833] Paramount Iteration,5,7,0.080926,1.951816
[MO833] Paramount Iteration,1,7,0.081015,1.952253
[MO833] Paramount Iteration,7,7,0.080782,1.952270
[MO833] Paramount Iteration,2,7,0.081249,1.951881
[MO833] Paramount Iteration,3,7,0.081213,1.951945
[MO833] Paramount Iteration,0,8,0.383130,2.335132
[MO833] Paramount Iteration,6,8,0.383329,2.335146
[MO833] Paramount Iteration,2,8,0.382869,2.334834
[MO833] Paramount Iteration,4,8,0.383352,2.335254
[MO833] Paramount Iteration,5,8,0.383573,2.335419
[MO833] Paramount Iteration,1,8,0.383334,2.335659
[MO833] Paramount Iteration,3,8,0.383447,2.335401
[MO833] Paramount Iteration,7,8,0.383738,2.336052
[MO833] Paramount Iteration,6,9,0.083893,2.419073
[MO833] Paramount Iteration,0,9,0.084036,2.419242
[MO833] Paramount Iteration,2,9,0.084022,2.418944
[MO833] Paramount Iteration,4,9,0.083889,2.419227
[MO833] Paramount Iteration,5,9,0.084005,2.419441
[MO833] Paramount Iteration,3,9,0.083773,2.419200
[MO833] Paramount Iteration,7,9,0.083556,2.419677
[MO833] Paramount Iteration,1,9,0.084264,2.419942
[MO833] Paramount Iteration,0,10,0.082840,2.502134
[MO833] Paramount Iteration,6,10,0.083041,2.502151
[MO833] Paramount Iteration,2,10,0.082894,2.501924
[MO833] Paramount Iteration,1,10,0.082419,2.502382
[MO833] Paramount Iteration,3,10,0.082766,2.501988
[MO833] Paramount Iteration,4,10,0.082930,2.502246
[MO833] Paramount Iteration,5,10,0.082820,2.502282
[MO833] Paramount Iteration,7,10,0.082688,2.502429
[MO833] Paramount Iteration,0,11,0.082475,2.584683
[MO833] Paramount Iteration,2,11,0.082242,2.584254
[MO833] Paramount Iteration,6,11,0.082628,2.584822
[MO833] Paramount Iteration,4,11,0.082603,2.584941
[MO833] Paramount Iteration,5,11,0.082831,2.585128
[MO833] Paramount Iteration,1,11,0.082932,2.585354
[MO833] Paramount Iteration,3,11,0.082945,2.584940
[MO833] Paramount Iteration,7,11,0.083448,2.585918
[MO833] Paramount Iteration,2,12,0.398476,2.982813
[MO833] Paramount Iteration,3,12,0.398239,2.983201
[MO833] Paramount Iteration,0,12,0.398927,2.983682
[MO833] Paramount Iteration,6,12,0.398857,2.983713
[MO833] Paramount Iteration,5,12,0.398636,2.983784
[MO833] Paramount Iteration,4,12,0.398787,2.983813
[MO833] Paramount Iteration,1,12,0.398727,2.984099
[MO833] Paramount Iteration,7,12,0.398459,2.984445
[MO833] Paramount Iteration,1,13,0.085532,3.069667
[MO833] Paramount Iteration,5,13,0.085809,3.069627
[MO833] Paramount Iteration,4,13,0.085855,3.069751
[MO833] Paramount Iteration,0,13,0.086146,3.069884
[MO833] Paramount Iteration,2,13,0.086601,3.069482
[MO833] Paramount Iteration,3,13,0.086317,3.069539
[MO833] Paramount Iteration,6,13,0.086130,3.069882
[MO833] Paramount Iteration,7,13,0.085828,3.070341
[MO833] Paramount Iteration,1,14,0.085235,3.154937
[MO833] Paramount Iteration,2,14,0.085086,3.154654
[MO833] Paramount Iteration,0,14,0.085337,3.155254
[MO833] Paramount Iteration,6,14,0.085233,3.155152
[MO833] Paramount Iteration,5,14,0.085522,3.155199
[MO833] Paramount Iteration,3,14,0.085541,3.155089
[MO833] Paramount Iteration,4,14,0.085557,3.155337
[MO833] Paramount Iteration,7,14,0.085539,3.155927
[MO833] Paramount Iteration,0,15,0.085486,3.240783
[MO833] Paramount Iteration,2,15,0.085621,3.240356
[MO833] Paramount Iteration,1,15,0.085781,3.240751
[MO833] Paramount Iteration,3,15,0.085553,3.240664
[MO833] Paramount Iteration,6,15,0.085787,3.240976
[MO833] Paramount Iteration,4,15,0.085496,3.240901
[MO833] Paramount Iteration,5,15,0.085673,3.240905
[MO833] Paramount Iteration,7,15,0.085547,3.241525
[MO833] Paramount Iteration,2,16,0.413932,3.654369
[MO833] Paramount Iteration,6,16,0.413624,3.654635
[MO833] Paramount Iteration,5,16,0.413667,3.654599
[MO833] Paramount Iteration,4,16,0.413808,3.654799
[MO833] Paramount Iteration,3,16,0.414090,3.654776
[MO833] Paramount Iteration,0,16,0.414350,3.655195
[MO833] Paramount Iteration,1,16,0.414478,3.655259
[MO833] Paramount Iteration,7,16,0.413736,3.655327
[MO833] Paramount Iteration,2,17,0.088946,3.743402
[MO833] Paramount Iteration,4,17,0.089011,3.743857
[MO833] Paramount Iteration,6,17,0.089257,3.743931
[MO833] Paramount Iteration,5,17,0.089238,3.743877
[MO833] Paramount Iteration,3,17,0.088883,3.743684
[MO833] Paramount Iteration,0,17,0.088896,3.744145
[MO833] Paramount Iteration,7,17,0.088983,3.744381
[MO833] Paramount Iteration,1,17,0.089423,3.744698
[MO833] Paramount Iteration,6,18,0.091043,3.835011
[MO833] Paramount Iteration,0,18,0.091033,3.835245
[MO833] Paramount Iteration,4,18,0.091165,3.835114
[MO833] Paramount Iteration,5,18,0.091417,3.835306
[MO833] Paramount Iteration,2,18,0.091570,3.835081
[MO833] Paramount Iteration,7,18,0.091063,3.835494
[MO833] Paramount Iteration,3,18,0.091517,3.835237
[MO833] Paramount Iteration,1,18,0.091216,3.835991
[MO833] Paramount Iteration,6,19,0.089759,3.924811
[MO833] Paramount Iteration,2,19,0.089766,3.924941
[MO833] Paramount Iteration,4,19,0.090105,3.925309
[MO833] Paramount Iteration,5,19,0.089977,3.925304
[MO833] Paramount Iteration,0,19,0.090326,3.925633
[MO833] Paramount Iteration,7,19,0.090299,3.925863
[MO833] Paramount Iteration,3,19,0.090378,3.925649
[MO833] Paramount Iteration,1,19,0.090090,3.926164
[MO833] Paramount Iteration,6,20,0.432171,4.357025
[MO833] Paramount Iteration,2,20,0.431792,4.356824
[MO833] Paramount Iteration,0,20,0.431992,4.357700
[MO833] Paramount Iteration,3,20,0.431755,4.357436
[MO833] Paramount Iteration,7,20,0.432062,4.358009
[MO833] Paramount Iteration,1,20,0.432056,4.358294
[MO833] Paramount Iteration,4,20,0.432886,4.358278
[MO833] Paramount Iteration,5,20,0.432962,4.358292
[MO833] Paramount Iteration,0,21,0.101244,4.459017
[MO833] Paramount Iteration,1,21,0.100650,4.459013
[MO833] Paramount Iteration,4,21,0.100848,4.459222
[MO833] Paramount Iteration,5,21,0.100912,4.459222
[MO833] Paramount Iteration,2,21,0.102250,4.459179
[MO833] Paramount Iteration,3,21,0.101989,4.459452
[MO833] Paramount Iteration,6,21,0.104075,4.461139
[MO833] Paramount Iteration,7,21,0.103497,4.461581
[MO833] Paramount Iteration,1,22,0.096985,4.556016
[MO833] Paramount Iteration,0,22,0.097331,4.556431
[MO833] Paramount Iteration,5,22,0.097057,4.556307
[MO833] Paramount Iteration,2,22,0.096938,4.556205
[MO833] Paramount Iteration,3,22,0.096806,4.556281
[MO833] Paramount Iteration,4,22,0.097241,4.556554
[MO833] Paramount Iteration,6,22,0.096672,4.557852
[MO833] Paramount Iteration,7,22,0.096548,4.558181
[MO833] Paramount Iteration,1,23,0.139070,4.695214
[MO833] Paramount Iteration,5,23,0.138860,4.695216
[MO833] Paramount Iteration,0,23,0.139115,4.695602
[MO833] Paramount Iteration,2,23,0.139022,4.695310
[MO833] Paramount Iteration,4,23,0.139031,4.695631
[MO833] Paramount Iteration,3,23,0.139164,4.695481
[MO833] Paramount Iteration,6,23,0.139104,4.696998
[MO833] Paramount Iteration,7,23,0.139513,4.697758
[MO833] Paramount Iteration,2,24,0.490394,5.185791
[MO833] Paramount Iteration,3,24,0.490533,5.186058
[MO833] Paramount Iteration,4,24,0.490748,5.186430
[MO833] Paramount Iteration,5,24,0.491228,5.186476
[MO833] Paramount Iteration,0,24,0.491100,5.186754
[MO833] Paramount Iteration,1,24,0.491858,5.187198
[MO833] Paramount Iteration,6,24,0.491056,5.188095
[MO833] Paramount Iteration,7,24,0.490940,5.188776
[MO833] Paramount Iteration,2,25,0.103229,5.289102
[MO833] Paramount Iteration,4,25,0.103058,5.289568
[MO833] Paramount Iteration,5,25,0.103106,5.289591
[MO833] Paramount Iteration,3,25,0.103402,5.289481
[MO833] Paramount Iteration,0,25,0.103144,5.289967
[MO833] Paramount Iteration,1,25,0.103397,5.290663
[MO833] Paramount Iteration,6,25,0.103522,5.291652
[MO833] Paramount Iteration,7,25,0.103325,5.292169
[MO833] Paramount Iteration,2,26,0.104393,5.393575
[MO833] Paramount Iteration,6,26,0.102180,5.393869
[MO833] Paramount Iteration,4,26,0.104128,5.393793
[MO833] Paramount Iteration,5,26,0.104238,5.393837
[MO833] Paramount Iteration,0,26,0.104026,5.394055
[MO833] Paramount Iteration,3,26,0.104451,5.393954
[MO833] Paramount Iteration,1,26,0.103730,5.394469
[MO833] Paramount Iteration,7,26,0.102252,5.394559
[MO833] Paramount Iteration,5,27,0.089460,5.483305
[MO833] Paramount Iteration,2,27,0.089530,5.483195
[MO833] Paramount Iteration,4,27,0.089595,5.483473
[MO833] Paramount Iteration,0,27,0.089483,5.483591
[MO833] Paramount Iteration,1,27,0.089221,5.483761
[MO833] Paramount Iteration,6,27,0.089767,5.483676
[MO833] Paramount Iteration,3,27,0.089719,5.483695
[MO833] Paramount Iteration,7,27,0.089795,5.484407
[MO833] Paramount Iteration,2,28,0.416884,5.900167
[MO833] Paramount Iteration,3,28,0.416757,5.900478
[MO833] Paramount Iteration,6,28,0.417030,5.900744
[MO833] Paramount Iteration,5,28,0.417460,5.900799
[MO833] Paramount Iteration,0,28,0.417389,5.901032
[MO833] Paramount Iteration,4,28,0.417533,5.901053
[MO833] Paramount Iteration,1,28,0.417379,5.901267
[MO833] Paramount Iteration,7,28,0.417095,5.901555
[MO833] Paramount Iteration,1,29,0.087936,5.989270
[MO833] Paramount Iteration,0,29,0.088684,5.989778
[MO833] Paramount Iteration,2,29,0.089143,5.989390
[MO833] Paramount Iteration,6,29,0.088877,5.989657
[MO833] Paramount Iteration,5,29,0.088811,5.989645
[MO833] Paramount Iteration,3,29,0.089096,5.989597
[MO833] Paramount Iteration,7,29,0.088525,5.990151
[MO833] Paramount Iteration,4,29,0.089038,5.990135
[MO833] Paramount Iteration,1,30,0.087868,6.077257
[MO833] Paramount Iteration,0,30,0.087620,6.077440
[MO833] Paramount Iteration,2,30,0.087748,6.077220
[MO833] Paramount Iteration,3,30,0.087796,6.077441
[MO833] Paramount Iteration,6,30,0.087998,6.077688
[MO833] Paramount Iteration,4,30,0.087645,6.077832
[MO833] Paramount Iteration,5,30,0.088136,6.077813
[MO833] Paramount Iteration,7,30,0.088094,6.078305
[MO833] Paramount Iteration,1,31,0.089024,6.166395
[MO833] Paramount Iteration,6,31,0.088714,6.166439
[MO833] Paramount Iteration,2,31,0.088981,6.166281
[MO833] Paramount Iteration,3,31,0.088832,6.166294
[MO833] Paramount Iteration,0,31,0.089331,6.166822
[MO833] Paramount Iteration,7,31,0.088543,6.166910
[MO833] Paramount Iteration,5,31,0.089095,6.166942
[MO833] Paramount Iteration,4,31,0.089167,6.167072
[MO833] Paramount Iteration,2,32,0.409421,6.575783
[MO833] Paramount Iteration,6,32,0.409600,6.576072
[MO833] Paramount Iteration,0,32,0.409372,6.576246
[MO833] Paramount Iteration,3,32,0.409762,6.576078
[MO833] Paramount Iteration,1,32,0.410058,6.576567
[MO833] Paramount Iteration,7,32,0.409641,6.576614
[MO833] Paramount Iteration,5,32,0.409569,6.576545
[MO833] Paramount Iteration,4,32,0.409504,6.576640
[MO833] Paramount Iteration,2,33,0.090019,6.665881
[MO833] Paramount Iteration,6,33,0.089960,6.666070
[MO833] Paramount Iteration,3,33,0.090160,6.666260
[MO833] Paramount Iteration,0,33,0.090360,6.666656
[MO833] Paramount Iteration,1,33,0.090151,6.666791
[MO833] Paramount Iteration,4,33,0.090071,6.666735
[MO833] Paramount Iteration,7,33,0.090123,6.666804
[MO833] Paramount Iteration,5,33,0.090139,6.666719
[MO833] Paramount Iteration,1,34,0.088030,6.754917
[MO833] Paramount Iteration,3,34,0.088779,6.755062
[MO833] Paramount Iteration,0,34,0.088770,6.755489
[MO833] Paramount Iteration,2,34,0.089237,6.755197
[MO833] Paramount Iteration,5,34,0.088610,6.755361
[MO833] Paramount Iteration,6,34,0.089404,6.755512
[MO833] Paramount Iteration,7,34,0.088804,6.755660
[MO833] Paramount Iteration,4,34,0.089159,6.755971
[MO833] Paramount Iteration,1,35,0.090861,6.845899
[MO833] Paramount Iteration,2,35,0.090404,6.845638
[MO833] Paramount Iteration,0,35,0.090502,6.846029
[MO833] Paramount Iteration,6,35,0.090443,6.845990
[MO833] Paramount Iteration,3,35,0.090777,6.845874
[MO833] Paramount Iteration,5,35,0.090756,6.846155
[MO833] Paramount Iteration,4,35,0.090257,6.846281
[MO833] Paramount Iteration,7,35,0.090773,6.846508
[MO833] Paramount Iteration,2,36,0.417666,7.263385
[MO833] Paramount Iteration,6,36,0.417538,7.263566
[MO833] Paramount Iteration,5,36,0.417352,7.263543
[MO833] Paramount Iteration,0,36,0.417666,7.263725
[MO833] Paramount Iteration,4,36,0.417264,7.263640
[MO833] Paramount Iteration,1,36,0.417804,7.263899
[MO833] Paramount Iteration,3,36,0.417734,7.263629
[MO833] Paramount Iteration,7,36,0.417633,7.264187
[MO833] Paramount Iteration,5,37,0.088727,7.352301
[MO833] Paramount Iteration,3,37,0.088640,7.352291
[MO833] Paramount Iteration,1,37,0.088756,7.352755
[MO833] Paramount Iteration,2,37,0.089012,7.352484
[MO833] Paramount Iteration,4,37,0.089174,7.352841
[MO833] Paramount Iteration,0,37,0.089292,7.353070
[MO833] Paramount Iteration,6,37,0.089532,7.353138
[MO833] Paramount Iteration,7,37,0.089065,7.353305
[MO833] Paramount Iteration,2,38,0.090236,7.442759
[MO833] Paramount Iteration,6,38,0.089938,7.443132
[MO833] Paramount Iteration,0,38,0.090147,7.443269
[MO833] Paramount Iteration,3,38,0.090683,7.443007
[MO833] Paramount Iteration,1,38,0.090657,7.443545
[MO833] Paramount Iteration,4,38,0.090657,7.443546
[MO833] Paramount Iteration,7,38,0.090249,7.443627
[MO833] Paramount Iteration,5,38,0.091217,7.443550
[MO833] Paramount Iteration,0,39,0.091086,7.534406
[MO833] Paramount Iteration,1,39,0.090804,7.534425
[MO833] Paramount Iteration,6,39,0.091182,7.534350
[MO833] Paramount Iteration,2,39,0.091463,7.534305
[MO833] Paramount Iteration,3,39,0.091499,7.534527
[MO833] Paramount Iteration,7,39,0.091113,7.534787
[MO833] Paramount Iteration,4,39,0.091269,7.534898
[MO833] Paramount Iteration,5,39,0.091378,7.534950
[MO833] Paramount Iteration,1,40,0.412374,7.946808
[MO833] Paramount Iteration,0,40,0.412664,7.947150
[MO833] Paramount Iteration,5,40,0.412081,7.947041
[MO833] Paramount Iteration,2,40,0.412620,7.947005
[MO833] Paramount Iteration,3,40,0.412508,7.947057
[MO833] Paramount Iteration,6,40,0.412911,7.947294
[MO833] Paramount Iteration,4,40,0.412406,7.947394
[MO833] Paramount Iteration,7,40,0.412823,7.947657
[MO833] Paramount Iteration,2,41,0.089250,8.036346
[MO833] Paramount Iteration,3,41,0.089453,8.036519
[MO833] Paramount Iteration,0,41,0.089603,8.036805
[MO833] Paramount Iteration,5,41,0.089657,8.036732
[MO833] Paramount Iteration,4,41,0.089424,8.036865
[MO833] Paramount Iteration,6,41,0.089601,8.036931
[MO833] Paramount Iteration,1,41,0.090203,8.037136
[MO833] Paramount Iteration,7,41,0.089582,8.037285
[MO833] Paramount Iteration,6,42,0.089362,8.126330
[MO833] Paramount Iteration,2,42,0.089813,8.126244
[MO833] Paramount Iteration,0,42,0.089737,8.126601
[MO833] Paramount Iteration,3,42,0.090126,8.126667
[MO833] Paramount Iteration,4,42,0.090022,8.126952
[MO833] Paramount Iteration,1,42,0.089940,8.127137
[MO833] Paramount Iteration,7,42,0.089799,8.127133
[MO833] Paramount Iteration,5,42,0.090326,8.127093
[MO833] Paramount Iteration,6,43,0.089150,8.215514
[MO833] Paramount Iteration,2,43,0.089150,8.215473
[MO833] Paramount Iteration,4,43,0.088773,8.215808
[MO833] Paramount Iteration,3,43,0.089030,8.215719
[MO833] Paramount Iteration,7,43,0.088786,8.215973
[MO833] Paramount Iteration,5,43,0.088846,8.215957
[MO833] Paramount Iteration,0,43,0.089398,8.216057
[MO833] Paramount Iteration,1,43,0.089489,8.216727
[MO833] Paramount Iteration,0,44,0.409110,8.625219
[MO833] Paramount Iteration,2,44,0.409539,8.625087
[MO833] Paramount Iteration,3,44,0.409433,8.625172
[MO833] Paramount Iteration,6,44,0.409768,8.625314
[MO833] Paramount Iteration,4,44,0.409480,8.625372
[MO833] Paramount Iteration,5,44,0.409466,8.625441
[MO833] Paramount Iteration,7,44,0.409562,8.625583
[MO833] Paramount Iteration,1,44,0.408940,8.625736
[MO833] Paramount Iteration,1,45,0.089258,8.715060
[MO833] Paramount Iteration,2,45,0.089734,8.714906
[MO833] Paramount Iteration,0,45,0.089920,8.715216
[MO833] Paramount Iteration,6,45,0.089859,8.715211
[MO833] Paramount Iteration,5,45,0.089791,8.715263
[MO833] Paramount Iteration,3,45,0.090009,8.715226
[MO833] Paramount Iteration,4,45,0.089993,8.715447
[MO833] Paramount Iteration,7,45,0.090191,8.715819
[MO833] Paramount Iteration,2,46,0.089063,8.804048
[MO833] Paramount Iteration,0,46,0.089148,8.804402
[MO833] Paramount Iteration,4,46,0.089062,8.804552
[MO833] Paramount Iteration,3,46,0.089262,8.804510
[MO833] Paramount Iteration,6,46,0.089461,8.804707
[MO833] Paramount Iteration,5,46,0.089418,8.804716
[MO833] Paramount Iteration,1,46,0.089911,8.805087
[MO833] Paramount Iteration,7,46,0.089946,8.805816
[MO833] Paramount Iteration,1,47,0.089798,8.894961
[MO833] Paramount Iteration,0,47,0.090944,8.895398
[MO833] Paramount Iteration,3,47,0.090590,8.895123
[MO833] Paramount Iteration,5,47,0.090522,8.895259
[MO833] Paramount Iteration,2,47,0.091093,8.895223
[MO833] Paramount Iteration,6,47,0.090920,8.895664
[MO833] Paramount Iteration,4,47,0.091092,8.895728
[MO833] Paramount Iteration,7,47,0.089904,8.895792
[MO833] Paramount Iteration,2,48,0.416167,9.311418
[MO833] Paramount Iteration,6,48,0.415797,9.311501
[MO833] Paramount Iteration,4,48,0.415847,9.311625
[MO833] Paramount Iteration,5,48,0.416348,9.311642
[MO833] Paramount Iteration,3,48,0.416568,9.311725
[MO833] Paramount Iteration,0,48,0.416569,9.312007
[MO833] Paramount Iteration,7,48,0.416348,9.312175
[MO833] Paramount Iteration,1,48,0.417475,9.312558
[MO833] Paramount Iteration,0,49,0.090923,9.402994
[MO833] Paramount Iteration,2,49,0.091245,9.402749
[MO833] Paramount Iteration,6,49,0.091429,9.402967
[MO833] Paramount Iteration,4,49,0.091512,9.403222
[MO833] Paramount Iteration,5,49,0.091606,9.403257
[MO833] Paramount Iteration,1,49,0.090799,9.403431
[MO833] Paramount Iteration,3,49,0.091665,9.403413
[MO833] Paramount Iteration,7,49,0.091825,9.404062
[MO833] Paramount Iteration,6,50,0.091963,9.494965
[MO833] Paramount Iteration,2,50,0.092253,9.495085
[MO833] Paramount Iteration,0,50,0.092392,9.495460
[MO833] Paramount Iteration,3,50,0.091915,9.495353
[MO833] Paramount Iteration,7,50,0.091432,9.495550
[MO833] Paramount Iteration,4,50,0.092290,9.495599
[MO833] Paramount Iteration,5,50,0.092331,9.495597
[MO833] Paramount Iteration,1,50,0.092457,9.495961
[MO833] Paramount Iteration,6,51,0.091671,9.586675
[MO833] Paramount Iteration,0,51,0.091326,9.586856
[MO833] Paramount Iteration,2,51,0.091444,9.586621
[MO833] Paramount Iteration,4,51,0.091275,9.586965
[MO833] Paramount Iteration,5,51,0.091367,9.586998
[MO833] Paramount Iteration,1,51,0.091196,9.587234
[MO833] Paramount Iteration,3,51,0.091702,9.587079
[MO833] Paramount Iteration,7,51,0.091870,9.587487
[MO833] Paramount Iteration,0,52,0.416269,10.003179
[MO833] Paramount Iteration,4,52,0.416233,10.003288
[MO833] Paramount Iteration,1,52,0.416065,10.003379
[MO833] Paramount Iteration,2,52,0.416588,10.003293
[MO833] Paramount Iteration,6,52,0.416833,10.003542
[MO833] Paramount Iteration,3,52,0.416501,10.003602
[MO833] Paramount Iteration,5,52,0.416841,10.003849
[MO833] Paramount Iteration,7,52,0.416536,10.004072
[MO833] Paramount Iteration,1,53,0.093220,10.096753
[MO833] Paramount Iteration,2,53,0.093226,10.096606
[MO833] Paramount Iteration,6,53,0.093236,10.096812
[MO833] Paramount Iteration,0,53,0.093759,10.097013
[MO833] Paramount Iteration,5,53,0.093319,10.097191
[MO833] Paramount Iteration,3,53,0.093520,10.097145
[MO833] Paramount Iteration,4,53,0.094055,10.097416
[MO833] Paramount Iteration,7,53,0.093489,10.097623
[MO833] Paramount Iteration,6,54,0.091496,10.188348
[MO833] Paramount Iteration,0,54,0.091535,10.188601
[MO833] Paramount Iteration,4,54,0.091226,10.188690
[MO833] Paramount Iteration,5,54,0.091568,10.188796
[MO833] Paramount Iteration,2,54,0.091986,10.188679
[MO833] Paramount Iteration,7,54,0.091306,10.188998
[MO833] Paramount Iteration,1,54,0.092182,10.189154
[MO833] Paramount Iteration,3,54,0.091820,10.188992
[MO833] Paramount Iteration,1,55,0.090235,10.279508
[MO833] Paramount Iteration,0,55,0.091086,10.279749
[MO833] Paramount Iteration,5,55,0.091204,10.280024
[MO833] Paramount Iteration,6,55,0.091689,10.280068
[MO833] Paramount Iteration,4,55,0.091408,10.280177
[MO833] Paramount Iteration,7,55,0.091242,10.280288
[MO833] Paramount Iteration,3,55,0.091239,10.280255
[MO833] Paramount Iteration,2,55,0.091595,10.280358
[MO833] Paramount Iteration,2,56,0.422781,10.703169
[MO833] Paramount Iteration,5,56,0.423522,10.703582
[MO833] Paramount Iteration,3,56,0.423312,10.703606
[MO833] Paramount Iteration,0,56,0.424064,10.703870
[MO833] Paramount Iteration,4,56,0.423609,10.703828
[MO833] Paramount Iteration,6,56,0.423685,10.703790
[MO833] Paramount Iteration,1,56,0.424520,10.704147
[MO833] Paramount Iteration,7,56,0.424000,10.704331
[MO833] Paramount Iteration,1,57,0.091094,10.795313
[MO833] Paramount Iteration,2,57,0.092238,10.795485
[MO833] Paramount Iteration,5,57,0.092064,10.795680
[MO833] Paramount Iteration,0,57,0.091893,10.795817
[MO833] Paramount Iteration,3,57,0.092067,10.795694
[MO833] Paramount Iteration,6,57,0.092135,10.795962
[MO833] Paramount Iteration,4,57,0.092331,10.796205
[MO833] Paramount Iteration,7,57,0.092042,10.796450
[MO833] Paramount Iteration,1,58,0.091056,10.886485
[MO833] Paramount Iteration,5,58,0.090835,10.886549
[MO833] Paramount Iteration,0,58,0.090883,10.886747
[MO833] Paramount Iteration,3,58,0.090882,10.886595
[MO833] Paramount Iteration,4,58,0.090554,10.886808
[MO833] Paramount Iteration,2,58,0.091143,10.886711
[MO833] Paramount Iteration,6,58,0.090848,10.886847
[MO833] Paramount Iteration,7,58,0.090333,10.886848
[MO833] Paramount Iteration,2,59,0.090412,10.977165
[MO833] Paramount Iteration,0,59,0.090711,10.977507
[MO833] Paramount Iteration,6,59,0.090589,10.977461
[MO833] Paramount Iteration,1,59,0.091188,10.977795
[MO833] Paramount Iteration,3,59,0.091001,10.977628
[MO833] Paramount Iteration,4,59,0.090968,10.977823
[MO833] Paramount Iteration,5,59,0.091308,10.977891
[MO833] Paramount Iteration,7,59,0.091195,10.978154
[MO833] Paramount Iteration,2,60,0.427645,11.404895
[MO833] Paramount Iteration,6,60,0.427776,11.405272
[MO833] Paramount Iteration,0,60,0.427935,11.405501
[MO833] Paramount Iteration,1,60,0.427649,11.405554
[MO833] Paramount Iteration,3,60,0.427848,11.405500
[MO833] Paramount Iteration,5,60,0.427859,11.405782
[MO833] Paramount Iteration,4,60,0.428109,11.406011
[MO833] Paramount Iteration,7,60,0.428023,11.406252
[MO833] Paramount Iteration,1,61,0.092060,11.497657
[MO833] Paramount Iteration,2,61,0.092893,11.497871
[MO833] Paramount Iteration,3,61,0.092458,11.497982
[MO833] Paramount Iteration,0,61,0.092638,11.498200
[MO833] Paramount Iteration,5,61,0.092331,11.498150
[MO833] Paramount Iteration,4,61,0.092588,11.498642
[MO833] Paramount Iteration,6,61,0.093330,11.498639
[MO833] Paramount Iteration,7,61,0.092536,11.498856
[MO833] Paramount Iteration,0,62,0.092854,11.591099
[MO833] Paramount Iteration,1,62,0.093280,11.591058
[MO833] Paramount Iteration,2,62,0.093168,11.591128
[MO833] Paramount Iteration,6,62,0.092582,11.591260
[MO833] Paramount Iteration,4,62,0.092849,11.591543
[MO833] Paramount Iteration,5,62,0.093369,11.591556
[MO833] Paramount Iteration,3,62,0.093793,11.591798
[MO833] Paramount Iteration,7,62,0.093284,11.592185
[MO833] Paramount Iteration,0,63,0.092783,11.683891
[MO833] Paramount Iteration,1,63,0.092736,11.683919
[MO833] Paramount Iteration,2,63,0.092584,11.683796
[MO833] Paramount Iteration,3,63,0.092167,11.683989
[MO833] Paramount Iteration,6,63,0.092717,11.684012
[MO833] Paramount Iteration,7,63,0.092098,11.684353
[MO833] Paramount Iteration,4,63,0.092993,11.684623
[MO833] Paramount Iteration,5,63,0.093067,11.684638
[MO833] Paramount Iteration,4,64,0.428708,12.113415
[MO833] Paramount Iteration,0,64,0.429563,12.113534
[MO833] Paramount Iteration,5,64,0.428799,12.113448
[MO833] Paramount Iteration,2,64,0.429562,12.113440
[MO833] Paramount Iteration,6,64,0.429491,12.113540
[MO833] Paramount Iteration,1,64,0.429880,12.113809
[MO833] Paramount Iteration,3,64,0.429813,12.113825
[MO833] Paramount Iteration,7,64,0.429869,12.114285
[MO833] Paramount Iteration,1,65,0.092821,12.206703
[MO833] Paramount Iteration,0,65,0.093355,12.206944
[MO833] Paramount Iteration,5,65,0.093718,12.207176
[MO833] Paramount Iteration,2,65,0.093632,12.207157
[MO833] Paramount Iteration,4,65,0.093855,12.207354
[MO833] Paramount Iteration,6,65,0.093738,12.207318
[MO833] Paramount Iteration,3,65,0.093584,12.207430
[MO833] Paramount Iteration,7,65,0.093537,12.207889
[MO833] Paramount Iteration,1,66,0.094051,12.300872
[MO833] Paramount Iteration,0,66,0.094167,12.301164
[MO833] Paramount Iteration,2,66,0.093771,12.301014
[MO833] Paramount Iteration,5,66,0.093954,12.301169
[MO833] Paramount Iteration,6,66,0.093825,12.301180
[MO833] Paramount Iteration,3,66,0.093861,12.301317
[MO833] Paramount Iteration,4,66,0.093991,12.301426
[MO833] Paramount Iteration,7,66,0.093899,12.301843
[MO833] Paramount Iteration,2,67,0.094153,12.395259
[MO833] Paramount Iteration,5,67,0.094233,12.395439
[MO833] Paramount Iteration,3,67,0.094063,12.395403
[MO833] Paramount Iteration,6,67,0.094306,12.395525
[MO833] Paramount Iteration,4,67,0.094370,12.395846
[MO833] Paramount Iteration,0,67,0.094737,12.395955
[MO833] Paramount Iteration,1,67,0.094888,12.395887
[MO833] Paramount Iteration,7,67,0.094077,12.395988
[MO833] Paramount Iteration,2,68,0.441299,12.836640
[MO833] Paramount Iteration,3,68,0.441665,12.837105
[MO833] Paramount Iteration,6,68,0.441529,12.837092
[MO833] Paramount Iteration,4,68,0.441345,12.837242
[MO833] Paramount Iteration,5,68,0.441782,12.837261
[MO833] Paramount Iteration,0,68,0.441376,12.837389
[MO833] Paramount Iteration,7,68,0.441675,12.837711
[MO833] Paramount Iteration,1,68,0.442086,12.838051
[MO833] Paramount Iteration,2,69,0.095274,12.931997
[MO833] Paramount Iteration,3,69,0.095021,12.932149
[MO833] Paramount Iteration,6,69,0.095230,12.932357
[MO833] Paramount Iteration,5,69,0.095153,12.932424
[MO833] Paramount Iteration,0,69,0.095052,12.932506
[MO833] Paramount Iteration,4,69,0.095234,12.932565
[MO833] Paramount Iteration,1,69,0.094761,12.932887
[MO833] Paramount Iteration,7,69,0.095039,12.932796
[MO833] Paramount Iteration,2,70,0.094819,13.026905
[MO833] Paramount Iteration,6,70,0.094587,13.026984
[MO833] Paramount Iteration,3,70,0.094790,13.026982
[MO833] Paramount Iteration,5,70,0.094773,13.027231
[MO833] Paramount Iteration,0,70,0.094849,13.027418
[MO833] Paramount Iteration,7,70,0.094521,13.027385
[MO833] Paramount Iteration,4,70,0.094825,13.027430
[MO833] Paramount Iteration,1,70,0.094592,13.027590
[MO833] Paramount Iteration,2,71,0.093536,13.120521
[MO833] Paramount Iteration,6,71,0.093717,13.120735
[MO833] Paramount Iteration,3,71,0.093853,13.120868
[MO833] Paramount Iteration,4,71,0.093551,13.121026
[MO833] Paramount Iteration,0,71,0.093589,13.121089
[MO833] Paramount Iteration,5,71,0.093755,13.121026
[MO833] Paramount Iteration,1,71,0.093752,13.121407
[MO833] Paramount Iteration,7,71,0.093898,13.121328
[MO833] Paramount Iteration,2,72,0.438010,13.558613
[MO833] Paramount Iteration,4,72,0.437608,13.558718
[MO833] Paramount Iteration,5,72,0.437686,13.558736
[MO833] Paramount Iteration,3,72,0.438154,13.559045
[MO833] Paramount Iteration,0,72,0.438068,13.559215
[MO833] Paramount Iteration,6,72,0.438339,13.559110
[MO833] Paramount Iteration,1,72,0.438050,13.559580
[MO833] Paramount Iteration,7,72,0.438383,13.559776
[MO833] Paramount Iteration,4,73,0.094060,13.652855
[MO833] Paramount Iteration,5,73,0.094110,13.652854
[MO833] Paramount Iteration,2,73,0.094392,13.653080
[MO833] Paramount Iteration,0,73,0.094091,13.653360
[MO833] Paramount Iteration,3,73,0.094244,13.653312
[MO833] Paramount Iteration,6,73,0.094230,13.653376
[MO833] Paramount Iteration,1,73,0.094132,13.653792
[MO833] Paramount Iteration,7,73,0.093989,13.653831
[MO833] Paramount Iteration,2,74,0.094053,13.747216
[MO833] Paramount Iteration,3,74,0.094124,13.747460
[MO833] Paramount Iteration,6,74,0.094019,13.747433
[MO833] Paramount Iteration,5,74,0.094645,13.747528
[MO833] Paramount Iteration,0,74,0.094327,13.747756
[MO833] Paramount Iteration,4,74,0.094810,13.747746
[MO833] Paramount Iteration,7,74,0.094066,13.747947
[MO833] Paramount Iteration,1,74,0.094353,13.748218
[MO833] Paramount Iteration,2,75,0.094483,13.841782
[MO833] Paramount Iteration,6,75,0.094308,13.841777
[MO833] Paramount Iteration,3,75,0.094539,13.842021
[MO833] Paramount Iteration,0,75,0.094403,13.842227
[MO833] Paramount Iteration,4,75,0.094423,13.842214
[MO833] Paramount Iteration,7,75,0.094309,13.842334
[MO833] Paramount Iteration,5,75,0.094941,13.842506
[MO833] Paramount Iteration,1,75,0.094700,13.842986
[MO833] Paramount Iteration,2,76,0.426022,14.267882
[MO833] Paramount Iteration,5,76,0.425461,14.267990
[MO833] Paramount Iteration,3,76,0.425896,14.267939
[MO833] Paramount Iteration,4,76,0.425721,14.268021
[MO833] Paramount Iteration,0,76,0.425888,14.268178
[MO833] Paramount Iteration,1,76,0.425271,14.268333
[MO833] Paramount Iteration,6,76,0.426528,14.268343
[MO833] Paramount Iteration,7,76,0.426142,14.268547
[MO833] Paramount Iteration,2,77,0.094592,14.362575
[MO833] Paramount Iteration,3,77,0.095003,14.362952
[MO833] Paramount Iteration,6,77,0.094508,14.362887
[MO833] Paramount Iteration,5,77,0.094980,14.363006
[MO833] Paramount Iteration,4,77,0.095008,14.363116
[MO833] Paramount Iteration,0,77,0.095165,14.363399
[MO833] Paramount Iteration,1,77,0.095052,14.363467
[MO833] Paramount Iteration,7,77,0.094970,14.363560
[MO833] Paramount Iteration,2,78,0.093593,14.456250
[MO833] Paramount Iteration,3,78,0.093519,14.456494
[MO833] Paramount Iteration,6,78,0.093628,14.456553
[MO833] Paramount Iteration,0,78,0.093262,14.456732
[MO833] Paramount Iteration,4,78,0.093704,14.456851
[MO833] Paramount Iteration,5,78,0.093868,14.456910
[MO833] Paramount Iteration,7,78,0.093450,14.457063
[MO833] Paramount Iteration,1,78,0.093847,14.457359
[MO833] Paramount Iteration,2,79,0.092694,14.549017
[MO833] Paramount Iteration,6,79,0.092608,14.549197
[MO833] Paramount Iteration,0,79,0.092642,14.549436
[MO833] Paramount Iteration,3,79,0.092954,14.549471
[MO833] Paramount Iteration,4,79,0.092619,14.549561
[MO833] Paramount Iteration,5,79,0.092626,14.549547
[MO833] Paramount Iteration,1,79,0.092287,14.549724
[MO833] Paramount Iteration,7,79,0.092850,14.549962
[MO833] Paramount Iteration,2,80,0.427023,14.976122
[MO833] Paramount Iteration,6,80,0.427159,14.976392
[MO833] Paramount Iteration,3,80,0.427021,14.976515
[MO833] Paramount Iteration,0,80,0.427253,14.976752
[MO833] Paramount Iteration,1,80,0.427138,14.976927
[MO833] Paramount Iteration,5,80,0.427291,14.976873
[MO833] Paramount Iteration,4,80,0.427336,14.976978
[MO833] Paramount Iteration,7,80,0.427128,14.977163
[MO833] Paramount Iteration,2,81,0.093957,15.070155
[MO833] Paramount Iteration,1,81,0.093417,15.070473
[MO833] Paramount Iteration,0,81,0.093720,15.070540
[MO833] Paramount Iteration,3,81,0.093941,15.070478
[MO833] Paramount Iteration,5,81,0.093784,15.070692
[MO833] Paramount Iteration,6,81,0.094275,15.070703
[MO833] Paramount Iteration,4,81,0.093889,15.070898
[MO833] Paramount Iteration,7,81,0.094107,15.071325
[MO833] Paramount Iteration,2,82,0.093844,15.164074
[MO833] Paramount Iteration,6,82,0.093294,15.164031
[MO833] Paramount Iteration,3,82,0.093945,15.164445
[MO833] Paramount Iteration,4,82,0.093601,15.164546
[MO833] Paramount Iteration,0,82,0.094051,15.164619
[MO833] Paramount Iteration,5,82,0.093836,15.164564
[MO833] Paramount Iteration,7,82,0.093285,15.164673
[MO833] Paramount Iteration,1,82,0.094462,15.165026
[MO833] Paramount Iteration,2,83,0.093784,15.257943
[MO833] Paramount Iteration,3,83,0.093688,15.258156
[MO833] Paramount Iteration,0,83,0.093753,15.258426
[MO833] Paramount Iteration,6,83,0.094223,15.258288
[MO833] Paramount Iteration,4,83,0.093737,15.258366
[MO833] Paramount Iteration,5,83,0.093793,15.258366
[MO833] Paramount Iteration,1,83,0.093634,15.258734
[MO833] Paramount Iteration,7,83,0.093985,15.258724
[MO833] Paramount Iteration,6,84,0.435104,15.693428
[MO833] Paramount Iteration,4,84,0.435097,15.693547
[MO833] Paramount Iteration,5,84,0.435204,15.693596
[MO833] Paramount Iteration,2,84,0.435631,15.693653
[MO833] Paramount Iteration,0,84,0.435334,15.693819
[MO833] Paramount Iteration,3,84,0.435738,15.693916
[MO833] Paramount Iteration,7,84,0.435110,15.693898
[MO833] Paramount Iteration,1,84,0.435303,15.694105
[MO833] Paramount Iteration,2,85,0.092662,15.786401
[MO833] Paramount Iteration,6,85,0.093022,15.786486
[MO833] Paramount Iteration,1,85,0.092681,15.786870
[MO833] Paramount Iteration,5,85,0.093217,15.786823
[MO833] Paramount Iteration,0,85,0.093056,15.786936
[MO833] Paramount Iteration,3,85,0.092983,15.786921
[MO833] Paramount Iteration,4,85,0.093378,15.787013
[MO833] Paramount Iteration,7,85,0.093318,15.787280
[MO833] Paramount Iteration,5,86,0.093255,15.880114
[MO833] Paramount Iteration,4,86,0.093125,15.880214
[MO833] Paramount Iteration,2,86,0.093725,15.880207
[MO833] Paramount Iteration,0,86,0.093549,15.880496
[MO833] Paramount Iteration,1,86,0.093558,15.880575
[MO833] Paramount Iteration,6,86,0.093932,15.880454
[MO833] Paramount Iteration,3,86,0.093641,15.880586
[MO833] Paramount Iteration,7,86,0.093835,15.881186
[MO833] Paramount Iteration,2,87,0.435107,16.315398
[MO833] Paramount Iteration,3,87,0.434851,16.315459
[MO833] Paramount Iteration,6,87,0.435021,16.315516
[MO833] Paramount Iteration,5,87,0.435674,16.315820
[MO833] Paramount Iteration,4,87,0.435661,16.315906
[MO833] Paramount Iteration,0,87,0.435433,16.315998
[MO833] Paramount Iteration,7,87,0.434639,16.315879
[MO833] Paramount Iteration,1,87,0.435469,16.316094
[MO833] Paramount Iteration,6,88,0.096297,16.411846
[MO833] Paramount Iteration,4,88,0.096243,16.412185
[MO833] Paramount Iteration,5,88,0.096295,16.412219
[MO833] Paramount Iteration,2,88,0.096825,16.412306
[MO833] Paramount Iteration,7,88,0.096476,16.412402
[MO833] Paramount Iteration,3,88,0.097158,16.412626
[MO833] Paramount Iteration,0,88,0.096771,16.412835
[MO833] Paramount Iteration,1,88,0.097206,16.413348
[MO833] Paramount Iteration,2,89,0.097282,16.509682
[MO833] Paramount Iteration,6,89,0.097674,16.509552
[MO833] Paramount Iteration,3,89,0.097146,16.509795
[MO833] Paramount Iteration,4,89,0.097569,16.509833
[MO833] Paramount Iteration,5,89,0.097606,16.509835
[MO833] Paramount Iteration,7,89,0.097455,16.509916
[MO833] Paramount Iteration,0,89,0.097273,16.510180
[MO833] Paramount Iteration,1,89,0.097140,16.510558
[MO833] Paramount Iteration,2,90,0.441528,16.951288
[MO833] Paramount Iteration,6,90,0.441564,16.951151
[MO833] Paramount Iteration,5,90,0.441351,16.951285
[MO833] Paramount Iteration,4,90,0.441472,16.951333
[MO833] Paramount Iteration,0,90,0.441298,16.951546
[MO833] Paramount Iteration,3,90,0.441714,16.951555
[MO833] Paramount Iteration,1,90,0.441170,16.951807
[MO833] Paramount Iteration,7,90,0.441729,16.951690
[MO833] Paramount Iteration,6,91,0.093778,17.044965
[MO833] Paramount Iteration,0,91,0.093640,17.045250
[MO833] Paramount Iteration,2,91,0.093790,17.045159
[MO833] Paramount Iteration,4,91,0.093822,17.045164
[MO833] Paramount Iteration,5,91,0.093889,17.045288
[MO833] Paramount Iteration,1,91,0.093514,17.045443
[MO833] Paramount Iteration,3,91,0.093848,17.045426
[MO833] Paramount Iteration,7,91,0.093827,17.045581
[MO833] Paramount Iteration,5,92,0.091923,17.137250
[MO833] Paramount Iteration,1,92,0.091915,17.137490
[MO833] Paramount Iteration,2,92,0.092420,17.137662
[MO833] Paramount Iteration,4,92,0.092499,17.137696
[MO833] Paramount Iteration,3,92,0.092211,17.137660
[MO833] Paramount Iteration,0,92,0.092512,17.137816
[MO833] Paramount Iteration,6,92,0.092933,17.137933
[MO833] Paramount Iteration,7,92,0.092301,17.137932
[MO833] Paramount Iteration,6,93,0.091430,17.229389
[MO833] Paramount Iteration,2,93,0.091865,17.229604
[MO833] Paramount Iteration,4,93,0.092101,17.229820
[MO833] Paramount Iteration,0,93,0.092070,17.229923
[MO833] Paramount Iteration,5,93,0.092718,17.230064
[MO833] Paramount Iteration,3,93,0.092379,17.230070
[MO833] Paramount Iteration,7,93,0.092159,17.230198
[MO833] Paramount Iteration,1,93,0.093078,17.230659
[MO833] Paramount Iteration,2,94,0.425842,17.655525
[MO833] Paramount Iteration,3,94,0.425664,17.655756
[MO833] Paramount Iteration,0,94,0.425748,17.655818
[MO833] Paramount Iteration,6,94,0.426325,17.655749
[MO833] Paramount Iteration,4,94,0.426089,17.655943
[MO833] Paramount Iteration,5,94,0.425855,17.655965
[MO833] Paramount Iteration,1,94,0.425601,17.656329
[MO833] Paramount Iteration,7,94,0.426063,17.656310
[MO833] Paramount Iteration,2,95,0.093824,17.749426
[MO833] Paramount Iteration,6,95,0.093826,17.749612
[MO833] Paramount Iteration,3,95,0.094044,17.749820
[MO833] Paramount Iteration,0,95,0.094007,17.749882
[MO833] Paramount Iteration,4,95,0.093987,17.749963
[MO833] Paramount Iteration,5,95,0.094129,17.750215
[MO833] Paramount Iteration,7,95,0.094013,17.750374
[MO833] Paramount Iteration,1,95,0.094229,17.750630
[MO833] Paramount Iteration,4,96,0.095739,17.845735
[MO833] Paramount Iteration,2,96,0.096292,17.845793
[MO833] Paramount Iteration,5,96,0.095656,17.845917
[MO833] Paramount Iteration,6,96,0.096201,17.845851
[MO833] Paramount Iteration,3,96,0.096181,17.846021
[MO833] Paramount Iteration,0,96,0.096141,17.846091
[MO833] Paramount Iteration,1,96,0.095797,17.846493
[MO833] Paramount Iteration,7,96,0.095934,17.846376
[MO833] Paramount Iteration,2,97,0.095063,17.940935
[MO833] Paramount Iteration,4,97,0.095357,17.941125
[MO833] Paramount Iteration,0,97,0.095012,17.941167
[MO833] Paramount Iteration,5,97,0.095125,17.941100
[MO833] Paramount Iteration,6,97,0.095124,17.941011
[MO833] Paramount Iteration,3,97,0.095155,17.941198
[MO833] Paramount Iteration,1,97,0.094842,17.941457
[MO833] Paramount Iteration,7,97,0.095085,17.941529
[MO833] Paramount Iteration,2,98,0.428652,18.369668
[MO833] Paramount Iteration,6,98,0.428574,18.369621
[MO833] Paramount Iteration,3,98,0.428827,18.370047
[MO833] Paramount Iteration,4,98,0.428916,18.370051
[MO833] Paramount Iteration,5,98,0.428979,18.370185
[MO833] Paramount Iteration,0,98,0.429000,18.370235
[MO833] Paramount Iteration,7,98,0.428645,18.370222
[MO833] Paramount Iteration,1,98,0.429122,18.370660
[MO833] Paramount Iteration,2,99,0.095423,18.465173
[MO833] Paramount Iteration,5,99,0.094967,18.465193
[MO833] Paramount Iteration,3,99,0.095182,18.465250
[MO833] Paramount Iteration,4,99,0.095146,18.465230
[MO833] Paramount Iteration,0,99,0.095396,18.465691
[MO833] Paramount Iteration,6,99,0.095900,18.465555
[MO833] Paramount Iteration,1,99,0.095224,18.465957
[MO833] Paramount Iteration,7,99,0.095656,18.465940
     100   0.97370709   0.44128683    20.501842    22.403689    4.6861494 
[MO833] Paramount Iteration,1,100,0.126086,18.592118
[MO833] Paramount Iteration,2,100,0.126881,18.592132
[MO833] Paramount Iteration,6,100,0.126440,18.592034
[MO833] Paramount Iteration,4,100,0.126920,18.592160
[MO833] Paramount Iteration,0,100,0.126436,18.592199
[MO833] Paramount Iteration,3,100,0.126854,18.592134
[MO833] Paramount Iteration,7,100,0.126046,18.592034
[MO833] Paramount Iteration,5,100,0.126867,18.592160
Loop time of 17.4846 on 8 procs for 100 steps with 2048000 atoms

Performance: 5929.802 tau/day, 5.719 timesteps/s
97.9% CPU use with 8 MPI tasks x 1 OpenMP threads

MPI task timing breakdown:
Section |  min time  |  avg time  |  max time  |%varavg| %total
---------------------------------------------------------------
Pair    | 3.8758     | 3.9168     | 4.0132     |   2.5 | 22.40
Bond    | 1.9254     | 1.9401     | 1.9605     |   0.9 | 11.10
Neigh   | 7.5279     | 7.5377     | 7.5469     |   0.3 | 43.11
Comm    | 1.324      | 1.4431     | 1.5014     |   4.9 |  8.25
Output  | 0.0020096  | 0.0023136  | 0.0024719  |   0.3 |  0.01
Modify  | 2.0587     | 2.0839     | 2.1215     |   1.6 | 11.92
Other   |            | 0.5605     |            |       |  3.21

Nlocal:    256000 ave 256061 max 255948 min
Histogram: 2 0 0 2 0 1 1 1 0 1
Nghost:    36331.9 ave 36383 max 36254 min
Histogram: 1 0 0 1 1 1 0 1 2 1
Neighs:    1.24622e+06 ave 1.24686e+06 max 1.24541e+06 min
Histogram: 1 0 2 0 1 0 0 1 1 2

Total # of neighbors = 9969775
Ave neighs/atom = 4.86805
Ave special neighs/atom = 1.98
Neighbor list builds = 25
Dangerous builds = 0
Total wall time: 0:00:18
[MO833] Beta,4,0.066602
[MO833] PI avg,4,0.174844,100
[MO833] Beta,0,0.066676
[MO833] Beta,7,0.066669
[MO833] PI avg,0,0.174844,100
[MO833] PI avg,7,0.174843,100
[MO833] Total time,18.650155
[MO833] Beta,5,0.066673
[MO833] PI avg,5,0.174845,100
[MO833] Beta,1,0.066687
[MO833] Beta,3,0.066643
[MO833] PI avg,3,0.174847,100
[MO833] Beta,2,0.066661
[MO833] PI avg,2,0.174848,100
[MO833] Beta,6,0.066691
[MO833] PI avg,6,0.174842,100
[MO833] PI avg,1,0.174843,100
