LAMMPS (3 Mar 2020)
OMP_NUM_THREADS environment is not set. Defaulting to 1 thread. (src/comm.cpp:94)
  using 1 OpenMP thread(s) per MPI task
Reading data file ...
  orthogonal box = (0 0 0) to (3.1 3.1 3.1)
  2 by 2 by 2 MPI processor grid
  reading atoms ...
  3 atoms
  scanning bonds ...
  2 = max bonds/atom
  scanning angles ...
  1 = max angles/atom
  reading bonds ...
  2 bonds
  reading angles ...
  1 angles
Finding 1-2 1-3 1-4 neighbors ...
  special bond factors lj:   0          0          0         
  special bond factors coul: 0          0          0         
  2 = max # of 1-2 neighbors
  1 = max # of 1-3 neighbors
  1 = max # of 1-4 neighbors
  2 = max # of special neighbors
  special bonds CPU = 0.00371122 secs
  read_data CPU = 0.0197289 secs
Replicating atoms ...
  orthogonal box = (0 0 0) to (62 62 62)
  2 by 2 by 2 MPI processor grid
  24000 atoms
  16000 bonds
  8000 angles
Finding 1-2 1-3 1-4 neighbors ...
  special bond factors lj:   0          0          0         
  special bond factors coul: 0          0          0         
  2 = max # of 1-2 neighbors
  1 = max # of 1-3 neighbors
  1 = max # of 1-4 neighbors
  2 = max # of special neighbors
  special bonds CPU = 0.0039432 secs
  replicate CPU = 0.00864482 secs
Displacing atoms ...
Changing box ...
  orthogonal box = (-31 0 0) to (31 62 62)
Changing box ...
  orthogonal box = (-31 -31 0) to (31 31 62)
Changing box ...
  orthogonal box = (-31 -31 -31) to (31 31 31)
Changing box ...
  orthogonal box = (-31 -31 -124) to (31 31 124)
16000 atoms in group hydrogen
8000 atoms in group oxygen
Finding SHAKE clusters ...
  0 = # of size 2 clusters
  0 = # of size 3 clusters
  0 = # of size 4 clusters
  8000 = # of frozen angles
  find clusters CPU = 0.00312686 secs
PPPM initialization ...
  extracting TIP4P info from pair style
  using 12-bit tables for long-range coulomb (src/kspace.cpp:332)
  G vector (1/distance) = 0.230756
  grid = 45 45 120
  stencil order = 5
  estimated absolute RMS force accuracy = 0.00315988
  estimated relative force accuracy = 9.51587e-06
  using double precision KISS FFT
  3d grid and FFT values/proc = 56347 31740
Neighbor list info ...
  update every 1 steps, delay 0 steps, check yes
  max neighbors/atom: 2000, page size: 100000
  master list distance cutoff = 15.3092
  ghost atom cutoff = 15.3092
  binsize = 7.6546, bins = 9 9 33
  1 neighbor lists, perpetual/occasional/extra = 1 0 0
  (1) pair lj/cut/tip4p/long, perpetual
      attributes: half, newton on
      pair build: half/bin/newton
      stencil: half/bin/3d/newton
      bin: standard
Setting up Verlet run ...
  Unit style    : real
  Current step  : 0
  Time step     : 2
Per MPI rank memory allocation (min/avg/max) = 31.37 | 32.17 | 33.02 Mbytes
Step Temp f_TAve Press f_PAve v_xyArea Lz f_st 
       0    450.00938            0    13733.809            0         3844          248            0 
[MO833] Paramount Iteration,0,1,0.104077,0.539029
[MO833] Paramount Iteration,4,1,0.104038,0.539007
[MO833] Paramount Iteration,6,1,0.104037,0.538955
[MO833] Paramount Iteration,2,1,0.104068,0.538995
[MO833] Paramount Iteration,1,1,0.104073,0.539028
[MO833] Paramount Iteration,5,1,0.104037,0.539010
[MO833] Paramount Iteration,7,1,0.104036,0.538954
[MO833] Paramount Iteration,3,1,0.104064,0.538991
[MO833] Paramount Iteration,0,2,0.103430,0.642626
[MO833] Paramount Iteration,4,2,0.103518,0.642592
[MO833] Paramount Iteration,6,2,0.103576,0.642560
[MO833] Paramount Iteration,2,2,0.103543,0.642600
[MO833] Paramount Iteration,1,2,0.103578,0.642625
[MO833] Paramount Iteration,5,2,0.103555,0.642592
[MO833] Paramount Iteration,7,2,0.103529,0.642558
[MO833] Paramount Iteration,3,2,0.103585,0.642596
[MO833] Paramount Iteration,0,3,0.104936,0.747746
[MO833] Paramount Iteration,4,3,0.105118,0.747725
[MO833] Paramount Iteration,2,3,0.105034,0.747697
[MO833] Paramount Iteration,1,3,0.105103,0.747746
[MO833] Paramount Iteration,5,3,0.105082,0.747728
[MO833] Paramount Iteration,6,3,0.105085,0.747699
[MO833] Paramount Iteration,3,3,0.105084,0.747699
[MO833] Paramount Iteration,7,3,0.105121,0.747700
[MO833] Paramount Iteration,0,4,0.103815,0.851591
[MO833] Paramount Iteration,4,4,0.103752,0.851551
[MO833] Paramount Iteration,6,4,0.103734,0.851490
[MO833] Paramount Iteration,2,4,0.103767,0.851526
[MO833] Paramount Iteration,1,4,0.103776,0.851590
[MO833] Paramount Iteration,5,4,0.103805,0.851553
[MO833] Paramount Iteration,7,4,0.103770,0.851490
[MO833] Paramount Iteration,3,4,0.103809,0.851522
[MO833] Paramount Iteration,0,5,0.104074,0.955846
[MO833] Paramount Iteration,4,5,0.104240,0.955809
[MO833] Paramount Iteration,6,5,0.104209,0.955756
[MO833] Paramount Iteration,2,5,0.104236,0.955782
[MO833] Paramount Iteration,1,5,0.104235,0.955845
[MO833] Paramount Iteration,5,5,0.104203,0.955812
[MO833] Paramount Iteration,7,5,0.104246,0.955757
[MO833] Paramount Iteration,3,5,0.104200,0.955778
[MO833] Paramount Iteration,0,6,0.103805,1.059826
[MO833] Paramount Iteration,1,6,0.103965,1.059829
[MO833] Paramount Iteration,4,6,0.103956,1.059823
[MO833] Paramount Iteration,6,6,0.104004,1.059792
[MO833] Paramount Iteration,2,6,0.103940,1.059785
[MO833] Paramount Iteration,5,6,0.103997,1.059827
[MO833] Paramount Iteration,7,6,0.103961,1.059794
[MO833] Paramount Iteration,3,6,0.103987,1.059785
[MO833] Paramount Iteration,0,7,0.185283,1.245295
[MO833] Paramount Iteration,2,7,0.185368,1.245215
[MO833] Paramount Iteration,1,7,0.185458,1.245301
[MO833] Paramount Iteration,4,7,0.185415,1.245298
[MO833] Paramount Iteration,6,7,0.185399,1.245218
[MO833] Paramount Iteration,3,7,0.185416,1.245216
[MO833] Paramount Iteration,5,7,0.185456,1.245302
[MO833] Paramount Iteration,7,7,0.185351,1.245219
[MO833] Paramount Iteration,4,8,0.107405,1.352762
[MO833] Paramount Iteration,6,8,0.107432,1.352673
[MO833] Paramount Iteration,2,8,0.107431,1.352709
[MO833] Paramount Iteration,1,8,0.107450,1.352810
[MO833] Paramount Iteration,5,8,0.107437,1.352758
[MO833] Paramount Iteration,7,8,0.107384,1.352673
[MO833] Paramount Iteration,3,8,0.107474,1.352705
[MO833] Paramount Iteration,0,8,0.107493,1.352811
[MO833] Paramount Iteration,4,9,0.107185,1.460000
[MO833] Paramount Iteration,6,9,0.107224,1.459919
[MO833] Paramount Iteration,2,9,0.107182,1.459955
[MO833] Paramount Iteration,0,9,0.107107,1.460056
[MO833] Paramount Iteration,5,9,0.107222,1.460003
[MO833] Paramount Iteration,7,9,0.107175,1.459915
[MO833] Paramount Iteration,3,9,0.107228,1.459952
[MO833] Paramount Iteration,1,9,0.107193,1.460055
[MO833] Paramount Iteration,2,10,0.107738,1.567713
[MO833] Paramount Iteration,1,10,0.107733,1.567851
[MO833] Paramount Iteration,6,10,0.107805,1.567745
[MO833] Paramount Iteration,3,10,0.107704,1.567709
[MO833] Paramount Iteration,4,10,0.107785,1.567844
[MO833] Paramount Iteration,7,10,0.107762,1.567746
[MO833] Paramount Iteration,5,10,0.107825,1.567848
[MO833] Paramount Iteration,0,10,0.107643,1.567850
[MO833] Paramount Iteration,0,11,0.188974,1.756986
[MO833] Paramount Iteration,1,11,0.189094,1.756991
[MO833] Paramount Iteration,4,11,0.189067,1.756973
[MO833] Paramount Iteration,6,11,0.189164,1.756930
[MO833] Paramount Iteration,2,11,0.189134,1.756914
[MO833] Paramount Iteration,5,11,0.189110,1.756977
[MO833] Paramount Iteration,7,11,0.189121,1.756931
[MO833] Paramount Iteration,3,11,0.189179,1.756912
[MO833] Paramount Iteration,0,12,0.109815,1.866826
[MO833] Paramount Iteration,4,12,0.109728,1.866760
[MO833] Paramount Iteration,1,12,0.109772,1.866825
[MO833] Paramount Iteration,5,12,0.109766,1.866762
[MO833] Paramount Iteration,6,12,0.109764,1.866715
[MO833] Paramount Iteration,2,12,0.109809,1.866743
[MO833] Paramount Iteration,7,12,0.109717,1.866715
[MO833] Paramount Iteration,3,12,0.109773,1.866739
[MO833] Paramount Iteration,0,13,0.110673,1.977520
[MO833] Paramount Iteration,6,13,0.110626,1.977398
[MO833] Paramount Iteration,2,13,0.110635,1.977396
[MO833] Paramount Iteration,1,13,0.110641,1.977524
[MO833] Paramount Iteration,4,13,0.110700,1.977522
[MO833] Paramount Iteration,7,13,0.110662,1.977398
[MO833] Paramount Iteration,3,13,0.110601,1.977394
[MO833] Paramount Iteration,5,13,0.110744,1.977527
[MO833] Paramount Iteration,0,14,0.192438,2.169980
[MO833] Paramount Iteration,4,14,0.192361,2.169904
[MO833] Paramount Iteration,6,14,0.192430,2.169848
[MO833] Paramount Iteration,2,14,0.192464,2.169880
[MO833] Paramount Iteration,1,14,0.192402,2.169979
[MO833] Paramount Iteration,5,14,0.192327,2.169907
[MO833] Paramount Iteration,7,14,0.192384,2.169847
[MO833] Paramount Iteration,3,14,0.192428,2.169876
[MO833] Paramount Iteration,0,15,0.110551,2.280549
[MO833] Paramount Iteration,4,15,0.110546,2.280473
[MO833] Paramount Iteration,6,15,0.110524,2.280389
[MO833] Paramount Iteration,2,15,0.110520,2.280422
[MO833] Paramount Iteration,1,15,0.110511,2.280548
[MO833] Paramount Iteration,5,15,0.110508,2.280473
[MO833] Paramount Iteration,7,15,0.110482,2.280388
[MO833] Paramount Iteration,3,15,0.110482,2.280418
[MO833] Paramount Iteration,0,16,0.110096,2.390663
[MO833] Paramount Iteration,6,16,0.110112,2.390524
[MO833] Paramount Iteration,2,16,0.110078,2.390520
[MO833] Paramount Iteration,1,16,0.110068,2.390670
[MO833] Paramount Iteration,4,16,0.110147,2.390640
[MO833] Paramount Iteration,7,16,0.110056,2.390525
[MO833] Paramount Iteration,3,16,0.110044,2.390518
[MO833] Paramount Iteration,5,16,0.110111,2.390644
[MO833] Paramount Iteration,0,17,0.191690,2.582376
[MO833] Paramount Iteration,4,17,0.191633,2.582298
[MO833] Paramount Iteration,1,17,0.191655,2.582375
[MO833] Paramount Iteration,5,17,0.191575,2.582300
[MO833] Paramount Iteration,6,17,0.191683,2.582230
[MO833] Paramount Iteration,2,17,0.191718,2.582258
[MO833] Paramount Iteration,7,17,0.191637,2.582228
[MO833] Paramount Iteration,3,17,0.191681,2.582254
[MO833] Paramount Iteration,0,18,0.111524,2.693918
[MO833] Paramount Iteration,2,18,0.111491,2.693767
[MO833] Paramount Iteration,1,18,0.111486,2.693920
[MO833] Paramount Iteration,4,18,0.111558,2.693875
[MO833] Paramount Iteration,6,18,0.111525,2.693785
[MO833] Paramount Iteration,3,18,0.111459,2.693766
[MO833] Paramount Iteration,5,18,0.111522,2.693880
[MO833] Paramount Iteration,7,18,0.111483,2.693786
[MO833] Paramount Iteration,4,19,0.110395,2.804290
[MO833] Paramount Iteration,6,19,0.110360,2.804164
[MO833] Paramount Iteration,2,19,0.110407,2.804193
[MO833] Paramount Iteration,1,19,0.110401,2.804376
[MO833] Paramount Iteration,5,19,0.110346,2.804280
[MO833] Paramount Iteration,7,19,0.110313,2.804163
[MO833] Paramount Iteration,3,19,0.110372,2.804189
[MO833] Paramount Iteration,0,19,0.110442,2.804377
[MO833] Paramount Iteration,0,20,0.191414,2.995937
[MO833] Paramount Iteration,4,20,0.191531,2.995838
[MO833] Paramount Iteration,6,20,0.191568,2.995756
[MO833] Paramount Iteration,2,20,0.191572,2.995789
[MO833] Paramount Iteration,1,20,0.191514,2.995936
[MO833] Paramount Iteration,5,20,0.191495,2.995841
[MO833] Paramount Iteration,7,20,0.191521,2.995754
[MO833] Paramount Iteration,3,20,0.191535,2.995785
[MO833] Paramount Iteration,0,21,0.111094,3.107048
[MO833] Paramount Iteration,1,21,0.111058,3.107048
[MO833] Paramount Iteration,4,21,0.111139,3.106993
[MO833] Paramount Iteration,6,21,0.111146,3.106922
[MO833] Paramount Iteration,2,21,0.111105,3.106912
[MO833] Paramount Iteration,5,21,0.111105,3.106997
[MO833] Paramount Iteration,7,21,0.111104,3.106923
[MO833] Paramount Iteration,3,21,0.111074,3.106910
[MO833] Paramount Iteration,0,22,0.111061,3.218131
[MO833] Paramount Iteration,1,22,0.111023,3.218132
[MO833] Paramount Iteration,4,22,0.111051,3.218066
[MO833] Paramount Iteration,6,22,0.111064,3.218007
[MO833] Paramount Iteration,2,22,0.111057,3.217989
[MO833] Paramount Iteration,5,22,0.111017,3.218070
[MO833] Paramount Iteration,7,22,0.111019,3.218007
[MO833] Paramount Iteration,3,22,0.111027,3.217987
[MO833] Paramount Iteration,4,23,0.190587,3.408673
[MO833] Paramount Iteration,6,23,0.190533,3.408563
[MO833] Paramount Iteration,2,23,0.190587,3.408594
[MO833] Paramount Iteration,1,23,0.190603,3.408793
[MO833] Paramount Iteration,5,23,0.190551,3.408676
[MO833] Paramount Iteration,7,23,0.190480,3.408563
[MO833] Paramount Iteration,3,23,0.190552,3.408590
[MO833] Paramount Iteration,0,23,0.190644,3.408794
[MO833] Paramount Iteration,0,24,0.109449,3.518417
[MO833] Paramount Iteration,4,24,0.109612,3.518306
[MO833] Paramount Iteration,6,24,0.109619,3.518199
[MO833] Paramount Iteration,2,24,0.109614,3.518228
[MO833] Paramount Iteration,1,24,0.109573,3.518416
[MO833] Paramount Iteration,5,24,0.109579,3.518309
[MO833] Paramount Iteration,7,24,0.109580,3.518200
[MO833] Paramount Iteration,3,24,0.109581,3.518224
[MO833] Paramount Iteration,0,25,0.110192,3.628793
[MO833] Paramount Iteration,4,25,0.110353,3.628676
[MO833] Paramount Iteration,6,25,0.110338,3.628559
[MO833] Paramount Iteration,2,25,0.110332,3.628579
[MO833] Paramount Iteration,1,25,0.110357,3.628792
[MO833] Paramount Iteration,5,25,0.110314,3.628676
[MO833] Paramount Iteration,7,25,0.110295,3.628561
[MO833] Paramount Iteration,3,25,0.110297,3.628575
[MO833] Paramount Iteration,4,26,0.191621,3.820315
[MO833] Paramount Iteration,6,26,0.191613,3.820193
[MO833] Paramount Iteration,2,26,0.191622,3.820222
[MO833] Paramount Iteration,1,26,0.191616,3.820439
[MO833] Paramount Iteration,5,26,0.191585,3.820317
[MO833] Paramount Iteration,7,26,0.191570,3.820193
[MO833] Paramount Iteration,3,26,0.191587,3.820218
[MO833] Paramount Iteration,0,26,0.191467,3.820440
[MO833] Paramount Iteration,4,27,0.111166,3.931497
[MO833] Paramount Iteration,6,27,0.111160,3.931372
[MO833] Paramount Iteration,1,27,0.111139,3.931628
[MO833] Paramount Iteration,5,27,0.111130,3.931500
[MO833] Paramount Iteration,7,27,0.111115,3.931371
[MO833] Paramount Iteration,2,27,0.111173,3.931417
[MO833] Paramount Iteration,3,27,0.111140,3.931414
[MO833] Paramount Iteration,0,27,0.111014,3.931629
[MO833] Paramount Iteration,0,28,0.110894,4.042706
[MO833] Paramount Iteration,1,28,0.111030,4.042710
[MO833] Paramount Iteration,4,28,0.111114,4.042628
[MO833] Paramount Iteration,6,28,0.111143,4.042539
[MO833] Paramount Iteration,2,28,0.111077,4.042512
[MO833] Paramount Iteration,5,28,0.111080,4.042632
[MO833] Paramount Iteration,7,28,0.111100,4.042540
[MO833] Paramount Iteration,3,28,0.111048,4.042511
[MO833] Paramount Iteration,0,29,0.192999,4.235726
[MO833] Paramount Iteration,4,29,0.192945,4.235592
[MO833] Paramount Iteration,6,29,0.192910,4.235468
[MO833] Paramount Iteration,2,29,0.192957,4.235487
[MO833] Paramount Iteration,1,29,0.192957,4.235725
[MO833] Paramount Iteration,5,29,0.192909,4.235595
[MO833] Paramount Iteration,7,29,0.192868,4.235470
[MO833] Paramount Iteration,3,29,0.192924,4.235483
[MO833] Paramount Iteration,4,30,0.112943,4.348557
[MO833] Paramount Iteration,6,30,0.112939,4.348428
[MO833] Paramount Iteration,2,30,0.112946,4.348449
[MO833] Paramount Iteration,0,30,0.112790,4.348700
[MO833] Paramount Iteration,5,30,0.112906,4.348560
[MO833] Paramount Iteration,7,30,0.112893,4.348425
[MO833] Paramount Iteration,3,30,0.112917,4.348448
[MO833] Paramount Iteration,1,30,0.112949,4.348699
[MO833] Paramount Iteration,0,31,0.112485,4.461331
[MO833] Paramount Iteration,4,31,0.112611,4.461190
[MO833] Paramount Iteration,6,31,0.112613,4.461075
[MO833] Paramount Iteration,2,31,0.112613,4.461086
[MO833] Paramount Iteration,1,31,0.112572,4.461330
[MO833] Paramount Iteration,5,31,0.112574,4.461192
[MO833] Paramount Iteration,7,31,0.112568,4.461075
[MO833] Paramount Iteration,3,31,0.112577,4.461082
[MO833] Paramount Iteration,0,32,0.193069,4.654421
[MO833] Paramount Iteration,4,32,0.193064,4.654272
[MO833] Paramount Iteration,6,32,0.193088,4.654182
[MO833] Paramount Iteration,1,32,0.193032,4.654420
[MO833] Paramount Iteration,5,32,0.193025,4.654275
[MO833] Paramount Iteration,7,32,0.193039,4.654180
[MO833] Paramount Iteration,2,32,0.193108,4.654212
[MO833] Paramount Iteration,3,32,0.193074,4.654210
[MO833] Paramount Iteration,0,33,0.111454,4.765893
[MO833] Paramount Iteration,4,33,0.111451,4.765746
[MO833] Paramount Iteration,6,33,0.111403,4.765607
[MO833] Paramount Iteration,2,33,0.111400,4.765630
[MO833] Paramount Iteration,1,33,0.111409,4.765892
[MO833] Paramount Iteration,5,33,0.111413,4.765748
[MO833] Paramount Iteration,7,33,0.111358,4.765607
[MO833] Paramount Iteration,3,33,0.111365,4.765626
[MO833] Paramount Iteration,6,34,0.111761,4.877390
[MO833] Paramount Iteration,2,34,0.111725,4.877375
[MO833] Paramount Iteration,7,34,0.111719,4.877390
[MO833] Paramount Iteration,3,34,0.111676,4.877373
[MO833] Paramount Iteration,4,34,0.111821,4.877586
[MO833] Paramount Iteration,5,34,0.111786,4.877590
[MO833] Paramount Iteration,0,34,0.111783,4.877860
[MO833] Paramount Iteration,1,34,0.111943,4.877858
[MO833] Paramount Iteration,0,35,0.192815,5.070694
[MO833] Paramount Iteration,1,35,0.192766,5.070694
[MO833] Paramount Iteration,4,35,0.192952,5.070564
[MO833] Paramount Iteration,6,35,0.193052,5.070464
[MO833] Paramount Iteration,2,35,0.193050,5.070447
[MO833] Paramount Iteration,5,35,0.192915,5.070568
[MO833] Paramount Iteration,7,35,0.193004,5.070464
[MO833] Paramount Iteration,3,35,0.193016,5.070445
[MO833] Paramount Iteration,0,36,0.112086,5.182798
[MO833] Paramount Iteration,1,36,0.112045,5.182798
[MO833] Paramount Iteration,4,36,0.112091,5.182678
[MO833] Paramount Iteration,2,36,0.112096,5.182562
[MO833] Paramount Iteration,5,36,0.112054,5.182682
[MO833] Paramount Iteration,6,36,0.112100,5.182583
[MO833] Paramount Iteration,3,36,0.112064,5.182560
[MO833] Paramount Iteration,7,36,0.112056,5.182583
[MO833] Paramount Iteration,0,37,0.110087,5.292904
[MO833] Paramount Iteration,4,37,0.110040,5.292738
[MO833] Paramount Iteration,6,37,0.109981,5.292589
[MO833] Paramount Iteration,2,37,0.110037,5.292617
[MO833] Paramount Iteration,1,37,0.110047,5.292903
[MO833] Paramount Iteration,5,37,0.110004,5.292741
[MO833] Paramount Iteration,7,37,0.109933,5.292588
[MO833] Paramount Iteration,3,37,0.110003,5.292613
[MO833] Paramount Iteration,0,38,0.190762,5.483847
[MO833] Paramount Iteration,4,38,0.190934,5.483694
[MO833] Paramount Iteration,6,38,0.190940,5.483547
[MO833] Paramount Iteration,2,38,0.190919,5.483555
[MO833] Paramount Iteration,1,38,0.190921,5.483846
[MO833] Paramount Iteration,5,38,0.190897,5.483696
[MO833] Paramount Iteration,7,38,0.190904,5.483547
[MO833] Paramount Iteration,3,38,0.190883,5.483551
[MO833] Paramount Iteration,0,39,0.110213,5.594080
[MO833] Paramount Iteration,2,39,0.110217,5.593793
[MO833] Paramount Iteration,1,39,0.110179,5.594082
[MO833] Paramount Iteration,4,39,0.110237,5.593953
[MO833] Paramount Iteration,6,39,0.110239,5.593808
[MO833] Paramount Iteration,3,39,0.110185,5.593791
[MO833] Paramount Iteration,5,39,0.110200,5.593957
[MO833] Paramount Iteration,7,39,0.110196,5.593809
[MO833] Paramount Iteration,0,40,0.110726,5.704827
[MO833] Paramount Iteration,1,40,0.110686,5.704828
[MO833] Paramount Iteration,4,40,0.110716,5.704690
[MO833] Paramount Iteration,6,40,0.110749,5.704581
[MO833] Paramount Iteration,2,40,0.110736,5.704550
[MO833] Paramount Iteration,5,40,0.110681,5.704694
[MO833] Paramount Iteration,7,40,0.110712,5.704581
[MO833] Paramount Iteration,3,40,0.110704,5.704548
[MO833] Paramount Iteration,0,41,0.192809,5.897827
[MO833] Paramount Iteration,4,41,0.192930,5.897638
[MO833] Paramount Iteration,6,41,0.192898,5.897499
[MO833] Paramount Iteration,2,41,0.192933,5.897507
[MO833] Paramount Iteration,1,41,0.192980,5.897826
[MO833] Paramount Iteration,5,41,0.192891,5.897639
[MO833] Paramount Iteration,7,41,0.192849,5.897499
[MO833] Paramount Iteration,3,41,0.192896,5.897503
[MO833] Paramount Iteration,0,42,0.110420,6.008419
[MO833] Paramount Iteration,4,42,0.110584,6.008238
[MO833] Paramount Iteration,6,42,0.110609,6.008129
[MO833] Paramount Iteration,2,42,0.110564,6.008102
[MO833] Paramount Iteration,1,42,0.110576,6.008418
[MO833] Paramount Iteration,5,42,0.110548,6.008241
[MO833] Paramount Iteration,7,42,0.110568,6.008129
[MO833] Paramount Iteration,3,42,0.110534,6.008100
[MO833] Paramount Iteration,6,43,0.111337,6.119490
[MO833] Paramount Iteration,0,43,0.111398,6.119838
[MO833] Paramount Iteration,4,43,0.111388,6.119648
[MO833] Paramount Iteration,7,43,0.111289,6.119486
[MO833] Paramount Iteration,2,43,0.111387,6.119512
[MO833] Paramount Iteration,1,43,0.111356,6.119837
[MO833] Paramount Iteration,5,43,0.111349,6.119650
[MO833] Paramount Iteration,3,43,0.111353,6.119509
[MO833] Paramount Iteration,0,44,0.192270,6.312248
[MO833] Paramount Iteration,4,44,0.192387,6.312056
[MO833] Paramount Iteration,6,44,0.192427,6.311936
[MO833] Paramount Iteration,1,44,0.192354,6.312247
[MO833] Paramount Iteration,5,44,0.192351,6.312059
[MO833] Paramount Iteration,7,44,0.192392,6.311936
[MO833] Paramount Iteration,2,44,0.192417,6.311952
[MO833] Paramount Iteration,3,44,0.192382,6.311948
[MO833] Paramount Iteration,0,45,0.109989,6.422257
[MO833] Paramount Iteration,4,45,0.110000,6.422077
[MO833] Paramount Iteration,1,45,0.109946,6.422256
[MO833] Paramount Iteration,5,45,0.109966,6.422081
[MO833] Paramount Iteration,6,45,0.110014,6.421970
[MO833] Paramount Iteration,2,45,0.109993,6.421963
[MO833] Paramount Iteration,7,45,0.109970,6.421970
[MO833] Paramount Iteration,3,45,0.109958,6.421959
[MO833] Paramount Iteration,0,46,0.110782,6.533213
[MO833] Paramount Iteration,1,46,0.110937,6.533212
[MO833] Paramount Iteration,4,46,0.110954,6.533049
[MO833] Paramount Iteration,6,46,0.110961,6.532950
[MO833] Paramount Iteration,2,46,0.110938,6.532923
[MO833] Paramount Iteration,5,46,0.110920,6.533053
[MO833] Paramount Iteration,7,46,0.110919,6.532951
[MO833] Paramount Iteration,3,46,0.110906,6.532922
[MO833] Paramount Iteration,0,47,0.192692,6.726102
[MO833] Paramount Iteration,4,47,0.192876,6.725943
[MO833] Paramount Iteration,6,47,0.192814,6.725784
[MO833] Paramount Iteration,2,47,0.192796,6.725743
[MO833] Paramount Iteration,1,47,0.192874,6.726106
[MO833] Paramount Iteration,5,47,0.192831,6.725946
[MO833] Paramount Iteration,7,47,0.192764,6.725784
[MO833] Paramount Iteration,3,47,0.192766,6.725743
[MO833] Paramount Iteration,4,48,0.112452,6.838418
[MO833] Paramount Iteration,6,48,0.112402,6.838242
[MO833] Paramount Iteration,2,48,0.112493,6.838258
[MO833] Paramount Iteration,0,48,0.112304,6.838622
[MO833] Paramount Iteration,5,48,0.112412,6.838421
[MO833] Paramount Iteration,7,48,0.112436,6.838241
[MO833] Paramount Iteration,3,48,0.112458,6.838254
[MO833] Paramount Iteration,1,48,0.112501,6.838622
[MO833] Paramount Iteration,0,49,0.111859,6.950628
[MO833] Paramount Iteration,4,49,0.111979,6.950414
[MO833] Paramount Iteration,6,49,0.111947,6.950246
[MO833] Paramount Iteration,2,49,0.111985,6.950260
[MO833] Paramount Iteration,1,49,0.111951,6.950628
[MO833] Paramount Iteration,5,49,0.111943,6.950417
[MO833] Paramount Iteration,7,49,0.111980,6.950245
[MO833] Paramount Iteration,3,49,0.111951,6.950256
[MO833] Paramount Iteration,1,50,0.201023,7.151670
[MO833] Paramount Iteration,2,50,0.201196,7.151474
[MO833] Paramount Iteration,3,50,0.201433,7.151742
[MO833] Paramount Iteration,4,50,0.201745,7.152182
[MO833] Paramount Iteration,5,50,0.201972,7.152448
[MO833] Paramount Iteration,6,50,0.202229,7.152534
[MO833] Paramount Iteration,7,50,0.202526,7.152794
[MO833] Paramount Iteration,0,50,0.202566,7.153376
[MO833] Paramount Iteration,6,51,0.112187,7.264780
[MO833] Paramount Iteration,2,51,0.113307,7.264800
[MO833] Paramount Iteration,0,51,0.111758,7.265182
[MO833] Paramount Iteration,4,51,0.112688,7.264964
[MO833] Paramount Iteration,7,51,0.111972,7.264780
[MO833] Paramount Iteration,3,51,0.113024,7.264796
[MO833] Paramount Iteration,1,51,0.113453,7.265181
[MO833] Paramount Iteration,5,51,0.112503,7.264966
[MO833] Paramount Iteration,6,52,0.110780,7.375617
[MO833] Paramount Iteration,2,52,0.110817,7.375635
[MO833] Paramount Iteration,4,52,0.110804,7.375828
[MO833] Paramount Iteration,7,52,0.110814,7.375616
[MO833] Paramount Iteration,3,52,0.110783,7.375631
[MO833] Paramount Iteration,5,52,0.110843,7.375829
[MO833] Paramount Iteration,0,52,0.110867,7.376201
[MO833] Paramount Iteration,1,52,0.110956,7.376196
[MO833] Paramount Iteration,6,53,0.191764,7.567433
[MO833] Paramount Iteration,2,53,0.191786,7.567442
[MO833] Paramount Iteration,1,53,0.191593,7.567856
[MO833] Paramount Iteration,4,53,0.191732,7.567616
[MO833] Paramount Iteration,7,53,0.191798,7.567434
[MO833] Paramount Iteration,3,53,0.191752,7.567438
[MO833] Paramount Iteration,5,53,0.191770,7.567619
[MO833] Paramount Iteration,0,53,0.191642,7.567857
[MO833] Paramount Iteration,0,54,0.110330,7.678372
[MO833] Paramount Iteration,6,54,0.110505,7.677997
[MO833] Paramount Iteration,2,54,0.110514,7.677974
[MO833] Paramount Iteration,1,54,0.110468,7.678375
[MO833] Paramount Iteration,4,54,0.110516,7.678201
[MO833] Paramount Iteration,7,54,0.110540,7.677997
[MO833] Paramount Iteration,3,54,0.110483,7.677973
[MO833] Paramount Iteration,5,54,0.110561,7.678206
[MO833] Paramount Iteration,4,55,0.111296,7.789561
[MO833] Paramount Iteration,6,55,0.111292,7.789369
[MO833] Paramount Iteration,2,55,0.111396,7.789389
[MO833] Paramount Iteration,0,55,0.111225,7.789799
[MO833] Paramount Iteration,5,55,0.111338,7.789564
[MO833] Paramount Iteration,7,55,0.111345,7.789369
[MO833] Paramount Iteration,3,55,0.111362,7.789385
[MO833] Paramount Iteration,1,55,0.111407,7.789798
[MO833] Paramount Iteration,0,56,0.203171,7.993114
[MO833] Paramount Iteration,4,56,0.203253,7.992875
[MO833] Paramount Iteration,6,56,0.203304,7.992730
[MO833] Paramount Iteration,1,56,0.203258,7.993113
[MO833] Paramount Iteration,5,56,0.203294,7.992878
[MO833] Paramount Iteration,7,56,0.203333,7.992725
[MO833] Paramount Iteration,2,56,0.203342,7.992750
[MO833] Paramount Iteration,3,56,0.203309,7.992749
[MO833] Paramount Iteration,0,57,0.110534,8.103833
[MO833] Paramount Iteration,1,57,0.110703,8.103833
[MO833] Paramount Iteration,4,57,0.110691,8.103628
[MO833] Paramount Iteration,2,57,0.110694,8.103461
[MO833] Paramount Iteration,5,57,0.110734,8.103632
[MO833] Paramount Iteration,6,57,0.110709,8.103492
[MO833] Paramount Iteration,3,57,0.110664,8.103459
[MO833] Paramount Iteration,7,57,0.110745,8.103492
[MO833] Paramount Iteration,4,58,0.110709,8.214405
[MO833] Paramount Iteration,6,58,0.110659,8.214204
[MO833] Paramount Iteration,2,58,0.110735,8.214218
[MO833] Paramount Iteration,1,58,0.110772,8.214666
[MO833] Paramount Iteration,5,58,0.110749,8.214405
[MO833] Paramount Iteration,7,58,0.110691,8.214203
[MO833] Paramount Iteration,3,58,0.110702,8.214213
[MO833] Paramount Iteration,0,58,0.110886,8.214739
[MO833] Paramount Iteration,0,59,0.190555,8.405400
[MO833] Paramount Iteration,1,59,0.190685,8.405399
[MO833] Paramount Iteration,4,59,0.190707,8.405172
[MO833] Paramount Iteration,6,59,0.190780,8.405036
[MO833] Paramount Iteration,2,59,0.190760,8.404995
[MO833] Paramount Iteration,5,59,0.190750,8.405176
[MO833] Paramount Iteration,7,59,0.190814,8.405036
[MO833] Paramount Iteration,3,59,0.190730,8.404993
[MO833] Paramount Iteration,0,60,0.160921,8.566342
[MO833] Paramount Iteration,4,60,0.160836,8.566072
[MO833] Paramount Iteration,6,60,0.160832,8.565923
[MO833] Paramount Iteration,2,60,0.160914,8.565927
[MO833] Paramount Iteration,1,60,0.160877,8.566340
[MO833] Paramount Iteration,5,60,0.160967,8.566166
[MO833] Paramount Iteration,7,60,0.160869,8.565927
[MO833] Paramount Iteration,3,60,0.160968,8.566010
[MO833] Paramount Iteration,0,61,0.110176,8.676737
[MO833] Paramount Iteration,4,61,0.110376,8.676508
[MO833] Paramount Iteration,2,61,0.110325,8.676317
[MO833] Paramount Iteration,1,61,0.110379,8.676736
[MO833] Paramount Iteration,5,61,0.110332,8.676512
[MO833] Paramount Iteration,6,61,0.110368,8.676345
[MO833] Paramount Iteration,3,61,0.110293,8.676315
[MO833] Paramount Iteration,7,61,0.110406,8.676345
[MO833] Paramount Iteration,0,62,0.191669,8.868592
[MO833] Paramount Iteration,1,62,0.191841,8.868596
[MO833] Paramount Iteration,4,62,0.191808,8.868377
[MO833] Paramount Iteration,2,62,0.191802,8.868179
[MO833] Paramount Iteration,5,62,0.191850,8.868381
[MO833] Paramount Iteration,6,62,0.191817,8.868216
[MO833] Paramount Iteration,3,62,0.191845,8.868177
[MO833] Paramount Iteration,7,62,0.191851,8.868216
[MO833] Paramount Iteration,0,63,0.110652,8.979266
[MO833] Paramount Iteration,4,63,0.110580,8.979016
[MO833] Paramount Iteration,6,63,0.110526,8.978802
[MO833] Paramount Iteration,2,63,0.110569,8.978807
[MO833] Paramount Iteration,1,63,0.110608,8.979264
[MO833] Paramount Iteration,5,63,0.110623,8.979021
[MO833] Paramount Iteration,7,63,0.110561,8.978802
[MO833] Paramount Iteration,3,63,0.110610,8.978804
[MO833] Paramount Iteration,0,64,0.111104,9.090390
[MO833] Paramount Iteration,4,64,0.111040,9.090117
[MO833] Paramount Iteration,6,64,0.111043,9.089905
[MO833] Paramount Iteration,2,64,0.111054,9.089913
[MO833] Paramount Iteration,1,64,0.111066,9.090389
[MO833] Paramount Iteration,5,64,0.111076,9.090117
[MO833] Paramount Iteration,7,64,0.111076,9.089903
[MO833] Paramount Iteration,3,64,0.111087,9.089909
[MO833] Paramount Iteration,0,65,0.192370,9.282919
[MO833] Paramount Iteration,1,65,0.192474,9.282918
[MO833] Paramount Iteration,4,65,0.192540,9.282674
[MO833] Paramount Iteration,6,65,0.192553,9.282512
[MO833] Paramount Iteration,2,65,0.192515,9.282490
[MO833] Paramount Iteration,5,65,0.192506,9.282679
[MO833] Paramount Iteration,7,65,0.192587,9.282512
[MO833] Paramount Iteration,3,65,0.192561,9.282488
[MO833] Paramount Iteration,0,66,0.110100,9.393201
[MO833] Paramount Iteration,2,66,0.110192,9.392746
[MO833] Paramount Iteration,1,66,0.110267,9.393204
[MO833] Paramount Iteration,4,66,0.110263,9.392958
[MO833] Paramount Iteration,6,66,0.110216,9.392781
[MO833] Paramount Iteration,3,66,0.110238,9.392745
[MO833] Paramount Iteration,5,66,0.110229,9.392962
[MO833] Paramount Iteration,7,66,0.110250,9.392781
[MO833] Paramount Iteration,0,67,0.110178,9.503570
[MO833] Paramount Iteration,1,67,0.110350,9.503570
[MO833] Paramount Iteration,4,67,0.110343,9.503321
[MO833] Paramount Iteration,6,67,0.110322,9.503153
[MO833] Paramount Iteration,2,67,0.110311,9.503119
[MO833] Paramount Iteration,5,67,0.110298,9.503325
[MO833] Paramount Iteration,7,67,0.110354,9.503153
[MO833] Paramount Iteration,3,67,0.110357,9.503118
[MO833] Paramount Iteration,0,68,0.192016,9.695773
[MO833] Paramount Iteration,4,68,0.192143,9.695485
[MO833] Paramount Iteration,6,68,0.192124,9.695299
[MO833] Paramount Iteration,2,68,0.192098,9.695277
[MO833] Paramount Iteration,1,68,0.192185,9.695773
[MO833] Paramount Iteration,5,68,0.192106,9.695487
[MO833] Paramount Iteration,7,68,0.192080,9.695299
[MO833] Paramount Iteration,3,68,0.192142,9.695275
[MO833] Paramount Iteration,0,69,0.111250,9.807045
[MO833] Paramount Iteration,6,69,0.111194,9.806549
[MO833] Paramount Iteration,2,69,0.111205,9.806544
[MO833] Paramount Iteration,1,69,0.111212,9.807044
[MO833] Paramount Iteration,4,69,0.111271,9.806774
[MO833] Paramount Iteration,7,69,0.111229,9.806549
[MO833] Paramount Iteration,3,69,0.111248,9.806540
[MO833] Paramount Iteration,5,69,0.111237,9.806778
[MO833] Paramount Iteration,0,70,0.150896,9.957961
[MO833] Paramount Iteration,1,70,0.150861,9.957961
[MO833] Paramount Iteration,4,70,0.150909,9.957701
[MO833] Paramount Iteration,6,70,0.150928,9.957529
[MO833] Paramount Iteration,2,70,0.150881,9.957488
[MO833] Paramount Iteration,5,70,0.150876,9.957706
[MO833] Paramount Iteration,7,70,0.150962,9.957529
[MO833] Paramount Iteration,3,70,0.150926,9.957487
[MO833] Paramount Iteration,0,71,0.192933,10.150910
[MO833] Paramount Iteration,4,71,0.192885,10.150603
[MO833] Paramount Iteration,6,71,0.192806,10.150394
[MO833] Paramount Iteration,1,71,0.192888,10.150909
[MO833] Paramount Iteration,5,71,0.192842,10.150603
[MO833] Paramount Iteration,7,71,0.192842,10.150392
[MO833] Paramount Iteration,2,71,0.192851,10.150405
[MO833] Paramount Iteration,3,71,0.192901,10.150402
[MO833] Paramount Iteration,0,72,0.110306,10.261234
[MO833] Paramount Iteration,4,72,0.110265,10.260928
[MO833] Paramount Iteration,6,72,0.110269,10.260713
[MO833] Paramount Iteration,2,72,0.110234,10.260703
[MO833] Paramount Iteration,1,72,0.110269,10.261232
[MO833] Paramount Iteration,5,72,0.110304,10.260929
[MO833] Paramount Iteration,7,72,0.110301,10.260713
[MO833] Paramount Iteration,3,72,0.110279,10.260702
[MO833] Paramount Iteration,0,73,0.110730,10.372153
[MO833] Paramount Iteration,4,73,0.110898,10.371843
[MO833] Paramount Iteration,6,73,0.110861,10.371629
[MO833] Paramount Iteration,2,73,0.110864,10.371623
[MO833] Paramount Iteration,1,73,0.110897,10.372152
[MO833] Paramount Iteration,5,73,0.110864,10.371846
[MO833] Paramount Iteration,7,73,0.110895,10.371627
[MO833] Paramount Iteration,3,73,0.110900,10.371619
[MO833] Paramount Iteration,0,74,0.191702,10.563876
[MO833] Paramount Iteration,1,74,0.191665,10.563875
[MO833] Paramount Iteration,4,74,0.191734,10.563595
[MO833] Paramount Iteration,6,74,0.191733,10.563417
[MO833] Paramount Iteration,2,74,0.191736,10.563380
[MO833] Paramount Iteration,5,74,0.191700,10.563599
[MO833] Paramount Iteration,7,74,0.191769,10.563417
[MO833] Paramount Iteration,3,74,0.191703,10.563378
[MO833] Paramount Iteration,0,75,0.110665,10.674564
[MO833] Paramount Iteration,1,75,0.110624,10.674566
[MO833] Paramount Iteration,4,75,0.110658,10.674275
[MO833] Paramount Iteration,6,75,0.110577,10.674052
[MO833] Paramount Iteration,2,75,0.110648,10.674048
[MO833] Paramount Iteration,5,75,0.110624,10.674279
[MO833] Paramount Iteration,7,75,0.110612,10.674053
[MO833] Paramount Iteration,3,75,0.110615,10.674045
[MO833] Paramount Iteration,0,76,0.111132,10.785869
[MO833] Paramount Iteration,4,76,0.111249,10.785545
[MO833] Paramount Iteration,2,76,0.111245,10.785312
[MO833] Paramount Iteration,1,76,0.111284,10.785867
[MO833] Paramount Iteration,5,76,0.111209,10.785545
[MO833] Paramount Iteration,6,76,0.111229,10.785339
[MO833] Paramount Iteration,3,76,0.111209,10.785310
[MO833] Paramount Iteration,7,76,0.111263,10.785339
[MO833] Paramount Iteration,0,77,0.193415,10.979303
[MO833] Paramount Iteration,4,77,0.193416,10.978981
[MO833] Paramount Iteration,6,77,0.193351,10.978749
[MO833] Paramount Iteration,2,77,0.193369,10.978743
[MO833] Paramount Iteration,1,77,0.193379,10.979302
[MO833] Paramount Iteration,5,77,0.193382,10.978985
[MO833] Paramount Iteration,7,77,0.193388,10.978750
[MO833] Paramount Iteration,3,77,0.193411,10.978739
[MO833] Paramount Iteration,6,78,0.111398,11.090201
[MO833] Paramount Iteration,2,78,0.111402,11.090203
[MO833] Paramount Iteration,1,78,0.111452,11.090775
[MO833] Paramount Iteration,4,78,0.111443,11.090445
[MO833] Paramount Iteration,7,78,0.111431,11.090200
[MO833] Paramount Iteration,3,78,0.111443,11.090200
[MO833] Paramount Iteration,5,78,0.111405,11.090445
[MO833] Paramount Iteration,0,78,0.111304,11.090777
[MO833] Paramount Iteration,0,79,0.111783,11.202745
[MO833] Paramount Iteration,1,79,0.111916,11.202747
[MO833] Paramount Iteration,4,79,0.111985,11.202452
[MO833] Paramount Iteration,6,79,0.111982,11.202236
[MO833] Paramount Iteration,2,79,0.111939,11.202209
[MO833] Paramount Iteration,5,79,0.111949,11.202457
[MO833] Paramount Iteration,7,79,0.112016,11.202236
[MO833] Paramount Iteration,3,79,0.111984,11.202207
[MO833] Paramount Iteration,0,80,0.234639,11.437405
[MO833] Paramount Iteration,4,80,0.234588,11.437061
[MO833] Paramount Iteration,6,80,0.234519,11.436813
[MO833] Paramount Iteration,2,80,0.234544,11.436822
[MO833] Paramount Iteration,1,80,0.234599,11.437404
[MO833] Paramount Iteration,5,80,0.234553,11.437064
[MO833] Paramount Iteration,7,80,0.234555,11.436812
[MO833] Paramount Iteration,3,80,0.234590,11.436820
[MO833] Paramount Iteration,0,81,0.112587,11.550162
[MO833] Paramount Iteration,1,81,0.112701,11.550161
[MO833] Paramount Iteration,4,81,0.112724,11.549851
[MO833] Paramount Iteration,6,81,0.112760,11.549631
[MO833] Paramount Iteration,5,81,0.112773,11.549855
[MO833] Paramount Iteration,7,81,0.112798,11.549631
[MO833] Paramount Iteration,2,81,0.112761,11.549649
[MO833] Paramount Iteration,3,81,0.112811,11.549645
[MO833] Paramount Iteration,4,82,0.115986,11.665859
[MO833] Paramount Iteration,6,82,0.115924,11.665609
[MO833] Paramount Iteration,2,82,0.115885,11.665609
[MO833] Paramount Iteration,1,82,0.115991,11.666212
[MO833] Paramount Iteration,5,82,0.115950,11.665862
[MO833] Paramount Iteration,7,82,0.115957,11.665609
[MO833] Paramount Iteration,3,82,0.115928,11.665605
[MO833] Paramount Iteration,0,82,0.116032,11.666212
[MO833] Paramount Iteration,0,83,0.196482,11.862904
[MO833] Paramount Iteration,4,83,0.196625,11.862549
[MO833] Paramount Iteration,6,83,0.196646,11.862328
[MO833] Paramount Iteration,1,83,0.196623,11.862903
[MO833] Paramount Iteration,5,83,0.196667,11.862552
[MO833] Paramount Iteration,7,83,0.196694,11.862327
[MO833] Paramount Iteration,2,83,0.196720,11.862350
[MO833] Paramount Iteration,3,83,0.196670,11.862348
[MO833] Paramount Iteration,4,84,0.113929,11.976500
[MO833] Paramount Iteration,6,84,0.113860,11.976247
[MO833] Paramount Iteration,2,84,0.113832,11.976247
[MO833] Paramount Iteration,1,84,0.113942,11.976863
[MO833] Paramount Iteration,5,84,0.113888,11.976500
[MO833] Paramount Iteration,7,84,0.113892,11.976244
[MO833] Paramount Iteration,3,84,0.113879,11.976246
[MO833] Paramount Iteration,0,84,0.113775,11.976864
[MO833] Paramount Iteration,0,85,0.112785,12.089833
[MO833] Paramount Iteration,4,85,0.112935,12.089495
[MO833] Paramount Iteration,6,85,0.112962,12.089262
[MO833] Paramount Iteration,2,85,0.112911,12.089225
[MO833] Paramount Iteration,1,85,0.112917,12.089832
[MO833] Paramount Iteration,5,85,0.112977,12.089499
[MO833] Paramount Iteration,7,85,0.112998,12.089263
[MO833] Paramount Iteration,3,85,0.112957,12.089224
[MO833] Paramount Iteration,0,86,0.194956,12.284958
[MO833] Paramount Iteration,6,86,0.195038,12.284358
[MO833] Paramount Iteration,2,86,0.195056,12.284344
[MO833] Paramount Iteration,1,86,0.195107,12.284957
[MO833] Paramount Iteration,4,86,0.195097,12.284614
[MO833] Paramount Iteration,7,86,0.195073,12.284359
[MO833] Paramount Iteration,3,86,0.195098,12.284340
[MO833] Paramount Iteration,5,86,0.195063,12.284618
[MO833] Paramount Iteration,0,87,0.113097,12.398078
[MO833] Paramount Iteration,1,87,0.113063,12.398082
[MO833] Paramount Iteration,4,87,0.113063,12.397755
[MO833] Paramount Iteration,6,87,0.113118,12.397531
[MO833] Paramount Iteration,2,87,0.113082,12.397488
[MO833] Paramount Iteration,5,87,0.113118,12.397760
[MO833] Paramount Iteration,7,87,0.113154,12.397531
[MO833] Paramount Iteration,3,87,0.113128,12.397487
[MO833] Paramount Iteration,6,88,0.112134,12.509723
[MO833] Paramount Iteration,1,88,0.112265,12.510363
[MO833] Paramount Iteration,4,88,0.112215,12.509993
[MO833] Paramount Iteration,7,88,0.112168,12.509722
[MO833] Paramount Iteration,2,88,0.112175,12.509725
[MO833] Paramount Iteration,5,88,0.112176,12.509993
[MO833] Paramount Iteration,3,88,0.112216,12.509721
[MO833] Paramount Iteration,0,88,0.112103,12.510365
[MO833] Paramount Iteration,0,89,0.193945,12.704497
[MO833] Paramount Iteration,1,89,0.194087,12.704499
[MO833] Paramount Iteration,4,89,0.194100,12.704156
[MO833] Paramount Iteration,6,89,0.194145,12.703921
[MO833] Paramount Iteration,2,89,0.194093,12.703880
[MO833] Paramount Iteration,5,89,0.194143,12.704160
[MO833] Paramount Iteration,7,89,0.194179,12.703921
[MO833] Paramount Iteration,3,89,0.194136,12.703878
[MO833] Paramount Iteration,0,90,0.152260,12.856779
[MO833] Paramount Iteration,1,90,0.152212,12.856777
[MO833] Paramount Iteration,4,90,0.152214,12.856430
[MO833] Paramount Iteration,6,90,0.152264,12.856208
[MO833] Paramount Iteration,2,90,0.152256,12.856158
[MO833] Paramount Iteration,5,90,0.152252,12.856431
[MO833] Paramount Iteration,7,90,0.152222,12.856208
[MO833] Paramount Iteration,3,90,0.152223,12.856154
[MO833] Paramount Iteration,0,91,0.112230,12.969026
[MO833] Paramount Iteration,4,91,0.112149,12.968641
[MO833] Paramount Iteration,6,91,0.112108,12.968372
[MO833] Paramount Iteration,2,91,0.112193,12.968367
[MO833] Paramount Iteration,1,91,0.112183,12.969025
[MO833] Paramount Iteration,5,91,0.112195,12.968643
[MO833] Paramount Iteration,7,91,0.112145,12.968371
[MO833] Paramount Iteration,3,91,0.112157,12.968363
[MO833] Paramount Iteration,0,92,0.192846,13.162047
[MO833] Paramount Iteration,1,92,0.192999,13.162048
[MO833] Paramount Iteration,4,92,0.193039,13.161699
[MO833] Paramount Iteration,6,92,0.193079,13.161471
[MO833] Paramount Iteration,2,92,0.193036,13.161421
[MO833] Paramount Iteration,5,92,0.193006,13.161703
[MO833] Paramount Iteration,7,92,0.193035,13.161471
[MO833] Paramount Iteration,3,92,0.193001,13.161419
[MO833] Paramount Iteration,0,93,0.110958,13.273212
[MO833] Paramount Iteration,4,93,0.111102,13.272820
[MO833] Paramount Iteration,6,93,0.111057,13.272548
[MO833] Paramount Iteration,2,93,0.111114,13.272555
[MO833] Paramount Iteration,1,93,0.111143,13.273211
[MO833] Paramount Iteration,5,93,0.111067,13.272822
[MO833] Paramount Iteration,7,93,0.111029,13.272563
[MO833] Paramount Iteration,3,93,0.111083,13.272554
[MO833] Paramount Iteration,0,94,0.110882,13.384305
[MO833] Paramount Iteration,4,94,0.111026,13.383903
[MO833] Paramount Iteration,6,94,0.111026,13.383633
[MO833] Paramount Iteration,2,94,0.111059,13.383633
[MO833] Paramount Iteration,1,94,0.111074,13.384305
[MO833] Paramount Iteration,5,94,0.111064,13.383906
[MO833] Paramount Iteration,7,94,0.111058,13.383632
[MO833] Paramount Iteration,3,94,0.111024,13.383629
[MO833] Paramount Iteration,0,95,0.192482,13.576942
[MO833] Paramount Iteration,4,95,0.192569,13.576533
[MO833] Paramount Iteration,1,95,0.192576,13.576940
[MO833] Paramount Iteration,5,95,0.192608,13.576533
[MO833] Paramount Iteration,2,95,0.192644,13.576296
[MO833] Paramount Iteration,6,95,0.192660,13.576346
[MO833] Paramount Iteration,3,95,0.192612,13.576294
[MO833] Paramount Iteration,7,95,0.192693,13.576346
[MO833] Paramount Iteration,0,96,0.112466,13.689427
[MO833] Paramount Iteration,4,96,0.112425,13.689015
[MO833] Paramount Iteration,6,96,0.112336,13.688738
[MO833] Paramount Iteration,2,96,0.112401,13.688716
[MO833] Paramount Iteration,1,96,0.112431,13.689426
[MO833] Paramount Iteration,5,96,0.112465,13.689018
[MO833] Paramount Iteration,7,96,0.112371,13.688738
[MO833] Paramount Iteration,3,96,0.112366,13.688712
[MO833] Paramount Iteration,0,97,0.111731,13.801300
[MO833] Paramount Iteration,4,97,0.111813,13.800888
[MO833] Paramount Iteration,6,97,0.111827,13.800620
[MO833] Paramount Iteration,2,97,0.111870,13.800608
[MO833] Paramount Iteration,1,97,0.111815,13.801300
[MO833] Paramount Iteration,5,97,0.111852,13.800890
[MO833] Paramount Iteration,7,97,0.111862,13.800620
[MO833] Paramount Iteration,3,97,0.111835,13.800604
[MO833] Paramount Iteration,0,98,0.194471,13.995945
[MO833] Paramount Iteration,4,98,0.194608,13.995555
[MO833] Paramount Iteration,6,98,0.194599,13.995276
[MO833] Paramount Iteration,2,98,0.194601,13.995235
[MO833] Paramount Iteration,1,98,0.194623,13.995944
[MO833] Paramount Iteration,5,98,0.194648,13.995559
[MO833] Paramount Iteration,7,98,0.194635,13.995277
[MO833] Paramount Iteration,3,98,0.194567,13.995233
[MO833] Paramount Iteration,0,99,0.112250,14.108401
[MO833] Paramount Iteration,4,99,0.112388,14.107996
[MO833] Paramount Iteration,6,99,0.112369,14.107704
[MO833] Paramount Iteration,2,99,0.112433,14.107691
[MO833] Paramount Iteration,1,99,0.112435,14.108400
[MO833] Paramount Iteration,5,99,0.112421,14.108001
[MO833] Paramount Iteration,7,99,0.112403,14.107704
[MO833] Paramount Iteration,3,99,0.112398,14.107687
     100    1727.5562    1930.0116     3712.096    3597.8437         3844          248   -156.58198 
[MO833] Paramount Iteration,1,100,0.172875,14.281331
[MO833] Paramount Iteration,4,100,0.172887,14.280943
[MO833] Paramount Iteration,2,100,0.172941,14.280654
[MO833] Paramount Iteration,5,100,0.172929,14.280948
[MO833] Paramount Iteration,6,100,0.172942,14.280704
[MO833] Paramount Iteration,3,100,0.172908,14.280650
[MO833] Paramount Iteration,7,100,0.172979,14.280704
[MO833] Paramount Iteration,0,100,0.173098,14.281520
Loop time of 13.8462 on 8 procs for 100 steps with 24000 atoms

Performance: 1.248 ns/day, 19.231 hours/ns, 7.222 timesteps/s
92.4% CPU use with 8 MPI tasks x 1 OpenMP threads

MPI task timing breakdown:
Section |  min time  |  avg time  |  max time  |%varavg| %total
---------------------------------------------------------------
Pair    | 7.0426     | 7.822      | 8.5627     |  25.8 | 56.49
Bond    | 0.00017834 | 0.0002065  | 0.00021982 |   0.0 |  0.00
Kspace  | 2.3916     | 3.1323     | 3.9111     |  40.7 | 22.62
Neigh   | 2.4347     | 2.442      | 2.4494     |   0.4 | 17.64
Comm    | 0.2056     | 0.21473    | 0.2252     |   1.4 |  1.55
Output  | 0.018364   | 0.020452   | 0.021531   |   0.6 |  0.15
Modify  | 0.17514    | 0.17945    | 0.18372    |   0.8 |  1.30
Other   |            | 0.0351     |            |       |  0.25

Nlocal:    3000 ave 3011 max 2986 min
Histogram: 1 0 0 0 2 1 1 2 0 1
Nghost:    14891.4 ave 14909 max 14883 min
Histogram: 1 2 2 1 1 0 0 0 0 1
Neighs:    2.04102e+06 ave 2.25439e+06 max 1.82887e+06 min
Histogram: 4 0 0 0 0 0 0 0 0 4

Total # of neighbors = 16328128
Ave neighs/atom = 680.339
Ave special neighs/atom = 2
Neighbor list builds = 31
Dangerous builds = 0
Total wall time: 0:00:14
[MO833] Beta,1,0.061555
[MO833] PI avg,1,0.138464,100
[MO833] Beta,0,0.061545
[MO833] PI avg,0,0.138466,100
[MO833] Total time,14.698794
[MO833] Beta,2,0.061561
[MO833] PI avg,2,0.138457,100
[MO833] Beta,7,0.061566
[MO833] PI avg,7,0.138458,100
[MO833] Beta,3,0.061566
[MO833] PI avg,3,0.138458,100
[MO833] Beta,6,0.061571
[MO833] PI avg,6,0.138458,100
[MO833] Beta,5,0.061594
[MO833] Beta,4,0.061599
[MO833] PI avg,5,0.138460,100
[MO833] PI avg,4,0.138460,100
