LAMMPS (3 Mar 2020)
OMP_NUM_THREADS environment is not set. Defaulting to 1 thread. (src/comm.cpp:94)
  using 1 OpenMP thread(s) per MPI task
Reading data file ...
  orthogonal box = (-16.796 -16.796 -16.796) to (16.796 16.796 16.796)
  1 by 2 by 2 MPI processor grid
  reading atoms ...
  32000 atoms
  reading velocities ...
  32000 velocities
  scanning bonds ...
  1 = max bonds/atom
  reading bonds ...
  31680 bonds
Finding 1-2 1-3 1-4 neighbors ...
  special bond factors lj:   0          1          1         
  special bond factors coul: 0          1          1         
  2 = max # of 1-2 neighbors
  2 = max # of special neighbors
  special bonds CPU = 0.00503302 secs
  read_data CPU = 0.123774 secs
Replicating atoms ...
  orthogonal box = (-16.796 -16.796 -16.796) to (117.572 117.572 117.572)
  1 by 2 by 2 MPI processor grid
  2048000 atoms
  2027520 bonds
Finding 1-2 1-3 1-4 neighbors ...
  special bond factors lj:   0          1          1         
  special bond factors coul: 0          1          1         
  2 = max # of 1-2 neighbors
  2 = max # of special neighbors
  special bonds CPU = 0.272792 secs
  replicate CPU = 0.421926 secs
Neighbor list info ...
  update every 1 steps, delay 1 steps, check yes
  max neighbors/atom: 2000, page size: 100000
  master list distance cutoff = 1.52
  ghost atom cutoff = 1.52
  binsize = 0.76, bins = 177 177 177
  1 neighbor lists, perpetual/occasional/extra = 1 0 0
  (1) pair lj/cut, perpetual
      attributes: half, newton on
      pair build: half/bin/newton
      stencil: half/bin/3d/newton
      bin: standard
Setting up Verlet run ...
  Unit style    : lj
  Current step  : 0
  Time step     : 0.012
WARNING: Communication cutoff 1.52 is shorter than a bond length based estimate of 1.855. This may lead to errors. (src/comm.cpp:686)
Per MPI rank memory allocation (min/avg/max) = 180 | 180 | 180 Mbytes
Step Temp E_pair E_mol TotEng Press 
       0   0.97026787   0.44484087    20.494523    22.394765    4.6721833 
[MO833] Paramount Iteration,0,1,0.151369,1.922079
[MO833] Paramount Iteration,2,1,0.151446,1.922102
[MO833] Paramount Iteration,1,1,0.151927,1.922642
[MO833] Paramount Iteration,3,1,0.152479,1.923148
[MO833] Paramount Iteration,0,2,0.156247,2.078438
[MO833] Paramount Iteration,2,2,0.156497,2.078645
[MO833] Paramount Iteration,1,2,0.156551,2.079253
[MO833] Paramount Iteration,3,2,0.156590,2.079815
[MO833] Paramount Iteration,0,3,0.154095,2.232563
[MO833] Paramount Iteration,2,3,0.153938,2.232614
[MO833] Paramount Iteration,1,3,0.154043,2.233346
[MO833] Paramount Iteration,3,3,0.153716,2.233593
[MO833] Paramount Iteration,0,4,0.730404,2.962998
[MO833] Paramount Iteration,2,4,0.730929,2.963575
[MO833] Paramount Iteration,1,4,0.730369,2.963765
[MO833] Paramount Iteration,3,4,0.730952,2.964609
[MO833] Paramount Iteration,0,5,0.203560,3.166592
[MO833] Paramount Iteration,1,5,0.203723,3.167524
[MO833] Paramount Iteration,2,5,0.204805,3.168413
[MO833] Paramount Iteration,3,5,0.205438,3.170096
[MO833] Paramount Iteration,2,6,0.168767,3.337233
[MO833] Paramount Iteration,0,6,0.171156,3.337781
[MO833] Paramount Iteration,1,6,0.170732,3.338310
[MO833] Paramount Iteration,3,6,0.168018,3.338244
[MO833] Paramount Iteration,0,7,0.165329,3.503138
[MO833] Paramount Iteration,2,7,0.166067,3.503331
[MO833] Paramount Iteration,1,7,0.165591,3.503948
[MO833] Paramount Iteration,3,7,0.165885,3.504195
[MO833] Paramount Iteration,0,8,0.751923,4.255093
[MO833] Paramount Iteration,2,8,0.752236,4.255600
[MO833] Paramount Iteration,1,8,0.752059,4.256054
[MO833] Paramount Iteration,3,8,0.752431,4.256691
[MO833] Paramount Iteration,2,9,0.166851,4.422484
[MO833] Paramount Iteration,0,9,0.167701,4.422826
[MO833] Paramount Iteration,1,9,0.167410,4.423513
[MO833] Paramount Iteration,3,9,0.166708,4.423466
[MO833] Paramount Iteration,0,10,0.167912,4.590821
[MO833] Paramount Iteration,2,10,0.168510,4.591026
[MO833] Paramount Iteration,1,10,0.167871,4.591435
[MO833] Paramount Iteration,3,10,0.168443,4.591975
[MO833] Paramount Iteration,0,11,0.168854,4.759794
[MO833] Paramount Iteration,2,11,0.168638,4.759696
[MO833] Paramount Iteration,1,11,0.168832,4.760320
[MO833] Paramount Iteration,3,11,0.168633,4.760672
[MO833] Paramount Iteration,2,12,0.766662,5.526389
[MO833] Paramount Iteration,0,12,0.767006,5.527003
[MO833] Paramount Iteration,3,12,0.766533,5.527270
[MO833] Paramount Iteration,1,12,0.767058,5.527428
[MO833] Paramount Iteration,0,13,0.168344,5.695442
[MO833] Paramount Iteration,1,13,0.168728,5.696200
[MO833] Paramount Iteration,2,13,0.169647,5.696067
[MO833] Paramount Iteration,3,13,0.169497,5.696836
[MO833] Paramount Iteration,2,14,0.166397,5.862497
[MO833] Paramount Iteration,0,14,0.167620,5.863187
[MO833] Paramount Iteration,3,14,0.166704,5.863603
[MO833] Paramount Iteration,1,14,0.167508,5.863757
[MO833] Paramount Iteration,0,15,0.170457,6.033735
[MO833] Paramount Iteration,2,15,0.171137,6.033665
[MO833] Paramount Iteration,1,15,0.170516,6.034312
[MO833] Paramount Iteration,3,15,0.170878,6.034546
[MO833] Paramount Iteration,2,16,0.778709,6.812407
[MO833] Paramount Iteration,0,16,0.779088,6.813005
[MO833] Paramount Iteration,3,16,0.778485,6.813103
[MO833] Paramount Iteration,1,16,0.778948,6.813311
[MO833] Paramount Iteration,0,17,0.169578,6.982678
[MO833] Paramount Iteration,2,17,0.170275,6.982764
[MO833] Paramount Iteration,1,17,0.170056,6.983417
[MO833] Paramount Iteration,3,17,0.170604,6.983772
[MO833] Paramount Iteration,2,18,0.171213,7.154007
[MO833] Paramount Iteration,0,18,0.171531,7.154330
[MO833] Paramount Iteration,1,18,0.171489,7.154957
[MO833] Paramount Iteration,3,18,0.171166,7.155005
[MO833] Paramount Iteration,0,19,0.169508,7.323930
[MO833] Paramount Iteration,2,19,0.170008,7.324048
[MO833] Paramount Iteration,1,19,0.169448,7.324457
[MO833] Paramount Iteration,3,19,0.169808,7.324880
[MO833] Paramount Iteration,0,20,0.792186,8.116234
[MO833] Paramount Iteration,2,20,0.792083,8.116165
[MO833] Paramount Iteration,1,20,0.792257,8.116766
[MO833] Paramount Iteration,3,20,0.791836,8.116780
[MO833] Paramount Iteration,0,21,0.171246,8.287678
[MO833] Paramount Iteration,2,21,0.171588,8.287785
[MO833] Paramount Iteration,1,21,0.171421,8.288240
[MO833] Paramount Iteration,3,21,0.171972,8.288815
[MO833] Paramount Iteration,0,22,0.168482,8.456286
[MO833] Paramount Iteration,2,22,0.168522,8.456337
[MO833] Paramount Iteration,1,22,0.168235,8.456524
[MO833] Paramount Iteration,3,22,0.167708,8.456602
[MO833] Paramount Iteration,0,23,0.170113,8.626520
[MO833] Paramount Iteration,2,23,0.170077,8.626448
[MO833] Paramount Iteration,1,23,0.170666,8.627234
[MO833] Paramount Iteration,3,23,0.170761,8.627420
[MO833] Paramount Iteration,0,24,0.780273,9.406976
[MO833] Paramount Iteration,2,24,0.780706,9.407186
[MO833] Paramount Iteration,1,24,0.780325,9.407611
[MO833] Paramount Iteration,3,24,0.780613,9.408097
[MO833] Paramount Iteration,0,25,0.171490,9.578584
[MO833] Paramount Iteration,2,25,0.171433,9.578701
[MO833] Paramount Iteration,1,25,0.171648,9.579315
[MO833] Paramount Iteration,3,25,0.171579,9.579743
[MO833] Paramount Iteration,0,26,0.171683,9.750381
[MO833] Paramount Iteration,2,26,0.171681,9.750462
[MO833] Paramount Iteration,1,26,0.171743,9.751108
[MO833] Paramount Iteration,3,26,0.171594,9.751403
[MO833] Paramount Iteration,2,27,0.173272,9.923840
[MO833] Paramount Iteration,0,27,0.173886,9.924382
[MO833] Paramount Iteration,3,27,0.172873,9.924343
[MO833] Paramount Iteration,1,27,0.173527,9.924687
[MO833] Paramount Iteration,2,28,0.800522,10.724444
[MO833] Paramount Iteration,0,28,0.800432,10.724951
[MO833] Paramount Iteration,1,28,0.800300,10.725036
[MO833] Paramount Iteration,3,28,0.800652,10.725060
[MO833] Paramount Iteration,2,29,0.174188,10.898668
[MO833] Paramount Iteration,0,29,0.174107,10.899148
[MO833] Paramount Iteration,1,29,0.174652,10.899726
[MO833] Paramount Iteration,3,29,0.174712,10.899835
[MO833] Paramount Iteration,2,30,0.175871,11.074571
[MO833] Paramount Iteration,0,30,0.175744,11.074984
[MO833] Paramount Iteration,1,30,0.175611,11.075385
[MO833] Paramount Iteration,3,30,0.175549,11.075449
[MO833] Paramount Iteration,2,31,0.170661,11.245262
[MO833] Paramount Iteration,0,31,0.170542,11.245616
[MO833] Paramount Iteration,1,31,0.170800,11.246239
[MO833] Paramount Iteration,3,31,0.170744,11.246256
[MO833] Paramount Iteration,2,32,0.792366,12.037661
[MO833] Paramount Iteration,0,32,0.792271,12.037991
[MO833] Paramount Iteration,1,32,0.792180,12.038472
[MO833] Paramount Iteration,3,32,0.792295,12.038615
[MO833] Paramount Iteration,0,33,0.172385,12.210464
[MO833] Paramount Iteration,2,33,0.173321,12.211013
[MO833] Paramount Iteration,1,33,0.172791,12.211313
[MO833] Paramount Iteration,3,33,0.173482,12.212162
[MO833] Paramount Iteration,0,34,0.174696,12.385275
[MO833] Paramount Iteration,1,34,0.174119,12.385484
[MO833] Paramount Iteration,2,34,0.174470,12.385516
[MO833] Paramount Iteration,3,34,0.173885,12.386113
[MO833] Paramount Iteration,0,35,0.172699,12.558094
[MO833] Paramount Iteration,2,35,0.172687,12.558239
[MO833] Paramount Iteration,1,35,0.173310,12.558846
[MO833] Paramount Iteration,3,35,0.173172,12.559351
[MO833] Paramount Iteration,0,36,0.802342,13.360552
[MO833] Paramount Iteration,2,36,0.802574,13.360849
[MO833] Paramount Iteration,1,36,0.802198,13.361093
[MO833] Paramount Iteration,3,36,0.802303,13.361722
[MO833] Paramount Iteration,0,37,0.172580,13.533241
[MO833] Paramount Iteration,1,37,0.172624,13.533767
[MO833] Paramount Iteration,2,37,0.172945,13.533827
[MO833] Paramount Iteration,3,37,0.172689,13.534474
[MO833] Paramount Iteration,0,38,0.174045,13.707401
[MO833] Paramount Iteration,2,38,0.173609,13.707470
[MO833] Paramount Iteration,1,38,0.174425,13.708247
[MO833] Paramount Iteration,3,38,0.174146,13.708683
[MO833] Paramount Iteration,0,39,0.174523,13.882044
[MO833] Paramount Iteration,2,39,0.174820,13.882322
[MO833] Paramount Iteration,1,39,0.174655,13.882956
[MO833] Paramount Iteration,3,39,0.174696,13.883445
[MO833] Paramount Iteration,2,40,0.800671,14.683027
[MO833] Paramount Iteration,0,40,0.801784,14.683942
[MO833] Paramount Iteration,3,40,0.800548,14.684059
[MO833] Paramount Iteration,1,40,0.801302,14.684310
[MO833] Paramount Iteration,2,41,0.175437,14.858498
[MO833] Paramount Iteration,0,41,0.174967,14.859004
[MO833] Paramount Iteration,1,41,0.174712,14.859079
[MO833] Paramount Iteration,3,41,0.175192,14.859301
[MO833] Paramount Iteration,0,42,0.174596,15.033687
[MO833] Paramount Iteration,2,42,0.175266,15.033798
[MO833] Paramount Iteration,1,42,0.175163,15.034276
[MO833] Paramount Iteration,3,42,0.175346,15.034715
[MO833] Paramount Iteration,0,43,0.173988,15.207791
[MO833] Paramount Iteration,1,43,0.174125,15.208453
[MO833] Paramount Iteration,2,43,0.174516,15.208349
[MO833] Paramount Iteration,3,43,0.174632,15.209414
[MO833] Paramount Iteration,2,44,0.811899,16.020282
[MO833] Paramount Iteration,0,44,0.812669,16.020573
[MO833] Paramount Iteration,1,44,0.812866,16.021359
[MO833] Paramount Iteration,3,44,0.811906,16.021372
[MO833] Paramount Iteration,0,45,0.173960,16.194623
[MO833] Paramount Iteration,2,45,0.174280,16.194648
[MO833] Paramount Iteration,1,45,0.173658,16.195068
[MO833] Paramount Iteration,3,45,0.173895,16.195290
[MO833] Paramount Iteration,2,46,0.174730,16.369457
[MO833] Paramount Iteration,0,46,0.174961,16.369772
[MO833] Paramount Iteration,1,46,0.175092,16.370212
[MO833] Paramount Iteration,3,46,0.175097,16.370411
[MO833] Paramount Iteration,0,47,0.173996,16.543859
[MO833] Paramount Iteration,1,47,0.174066,16.544330
[MO833] Paramount Iteration,2,47,0.174732,16.544273
[MO833] Paramount Iteration,3,47,0.174573,16.545008
[MO833] Paramount Iteration,0,48,0.814716,17.358691
[MO833] Paramount Iteration,2,48,0.814509,17.358867
[MO833] Paramount Iteration,1,48,0.814974,17.359358
[MO833] Paramount Iteration,3,48,0.814815,17.359845
[MO833] Paramount Iteration,2,49,0.175140,17.534090
[MO833] Paramount Iteration,0,49,0.175730,17.534531
[MO833] Paramount Iteration,1,49,0.175571,17.534981
[MO833] Paramount Iteration,3,49,0.175095,17.534962
[MO833] Paramount Iteration,2,50,0.177123,17.711290
[MO833] Paramount Iteration,0,50,0.176936,17.711558
[MO833] Paramount Iteration,1,50,0.177030,17.712062
[MO833] Paramount Iteration,3,50,0.177176,17.712159
[MO833] Paramount Iteration,2,51,0.820774,18.532149
[MO833] Paramount Iteration,1,51,0.820471,18.532580
[MO833] Paramount Iteration,0,51,0.820959,18.532616
[MO833] Paramount Iteration,3,51,0.820417,18.532598
[MO833] Paramount Iteration,2,52,0.175514,18.707750
[MO833] Paramount Iteration,0,52,0.175483,18.708190
[MO833] Paramount Iteration,1,52,0.175807,18.708457
[MO833] Paramount Iteration,3,52,0.176083,18.708703
[MO833] Paramount Iteration,0,53,0.175867,18.884145
[MO833] Paramount Iteration,2,53,0.176269,18.884101
[MO833] Paramount Iteration,1,53,0.176163,18.884674
[MO833] Paramount Iteration,3,53,0.176041,18.884768
[MO833] Paramount Iteration,0,54,0.815628,19.699956
[MO833] Paramount Iteration,2,54,0.815728,19.699911
[MO833] Paramount Iteration,1,54,0.815862,19.700583
[MO833] Paramount Iteration,3,54,0.815959,19.700750
[MO833] Paramount Iteration,0,55,0.177297,19.877432
[MO833] Paramount Iteration,2,55,0.177403,19.877395
[MO833] Paramount Iteration,1,55,0.177396,19.878030
[MO833] Paramount Iteration,3,55,0.177466,19.878239
[MO833] Paramount Iteration,2,56,0.175570,20.053049
[MO833] Paramount Iteration,0,56,0.175626,20.053251
[MO833] Paramount Iteration,1,56,0.175817,20.053900
[MO833] Paramount Iteration,3,56,0.175725,20.053988
[MO833] Paramount Iteration,0,57,0.176038,20.229368
[MO833] Paramount Iteration,2,57,0.176448,20.229580
[MO833] Paramount Iteration,1,57,0.175995,20.229946
[MO833] Paramount Iteration,3,57,0.176422,20.230433
[MO833] Paramount Iteration,2,58,0.831088,21.060754
[MO833] Paramount Iteration,0,58,0.831740,21.061225
[MO833] Paramount Iteration,1,58,0.831343,21.061341
[MO833] Paramount Iteration,3,58,0.830865,21.061322
[MO833] Paramount Iteration,2,59,0.174493,21.235333
[MO833] Paramount Iteration,0,59,0.174342,21.235656
[MO833] Paramount Iteration,1,59,0.174416,21.235799
[MO833] Paramount Iteration,3,59,0.174724,21.236069
[MO833] Paramount Iteration,0,60,0.176160,21.411944
[MO833] Paramount Iteration,2,60,0.176572,21.411986
[MO833] Paramount Iteration,1,60,0.176674,21.412516
[MO833] Paramount Iteration,3,60,0.176524,21.412615
[MO833] Paramount Iteration,0,61,0.174271,21.586401
[MO833] Paramount Iteration,2,61,0.174564,21.586631
[MO833] Paramount Iteration,1,61,0.174845,21.587414
[MO833] Paramount Iteration,3,61,0.175007,21.587644
[MO833] Paramount Iteration,0,62,0.820447,22.406963
[MO833] Paramount Iteration,2,62,0.820317,22.407031
[MO833] Paramount Iteration,1,62,0.820045,22.407509
[MO833] Paramount Iteration,3,62,0.820095,22.407774
[MO833] Paramount Iteration,0,63,0.175045,22.582123
[MO833] Paramount Iteration,2,63,0.175318,22.582431
[MO833] Paramount Iteration,1,63,0.175209,22.582772
[MO833] Paramount Iteration,3,63,0.175397,22.583235
[MO833] Paramount Iteration,2,64,0.174500,22.756963
[MO833] Paramount Iteration,0,64,0.175008,22.757243
[MO833] Paramount Iteration,1,64,0.174443,22.757264
[MO833] Paramount Iteration,3,64,0.174173,22.757472
[MO833] Paramount Iteration,0,65,0.805188,23.562528
[MO833] Paramount Iteration,2,65,0.805783,23.562778
[MO833] Paramount Iteration,1,65,0.805727,23.563000
[MO833] Paramount Iteration,3,65,0.806030,23.563563
[MO833] Paramount Iteration,0,66,0.174064,23.736709
[MO833] Paramount Iteration,2,66,0.173838,23.736698
[MO833] Paramount Iteration,1,66,0.174360,23.737412
[MO833] Paramount Iteration,3,66,0.174050,23.737680
[MO833] Paramount Iteration,0,67,0.176734,23.913634
[MO833] Paramount Iteration,2,67,0.176919,23.913700
[MO833] Paramount Iteration,1,67,0.176832,23.914296
[MO833] Paramount Iteration,3,67,0.176788,23.914492
[MO833] Paramount Iteration,0,68,0.176273,24.090020
[MO833] Paramount Iteration,1,68,0.176131,24.090481
[MO833] Paramount Iteration,2,68,0.176780,24.090566
[MO833] Paramount Iteration,3,68,0.176733,24.091247
[MO833] Paramount Iteration,0,69,0.812474,24.902609
[MO833] Paramount Iteration,2,69,0.812049,24.902698
[MO833] Paramount Iteration,1,69,0.812772,24.903304
[MO833] Paramount Iteration,3,69,0.812302,24.903571
[MO833] Paramount Iteration,0,70,0.174323,25.077145
[MO833] Paramount Iteration,2,70,0.174643,25.077419
[MO833] Paramount Iteration,1,70,0.174219,25.077577
[MO833] Paramount Iteration,3,70,0.174589,25.078227
[MO833] Paramount Iteration,0,71,0.175633,25.252891
[MO833] Paramount Iteration,2,71,0.175415,25.252918
[MO833] Paramount Iteration,1,71,0.175876,25.253499
[MO833] Paramount Iteration,3,71,0.175452,25.253747
[MO833] Paramount Iteration,2,72,0.823632,26.076633
[MO833] Paramount Iteration,0,72,0.823796,26.076874
[MO833] Paramount Iteration,1,72,0.823588,26.077139
[MO833] Paramount Iteration,3,72,0.823663,26.077476
[MO833] Paramount Iteration,0,73,0.175307,26.252270
[MO833] Paramount Iteration,2,73,0.175715,26.252433
[MO833] Paramount Iteration,1,73,0.175680,26.252873
[MO833] Paramount Iteration,3,73,0.175650,26.253195
[MO833] Paramount Iteration,2,74,0.175422,26.427936
[MO833] Paramount Iteration,0,74,0.176197,26.428584
[MO833] Paramount Iteration,3,74,0.175585,26.428849
[MO833] Paramount Iteration,1,74,0.176332,26.429259
[MO833] Paramount Iteration,0,75,0.177218,26.605893
[MO833] Paramount Iteration,2,75,0.177880,26.605901
[MO833] Paramount Iteration,1,75,0.177476,26.606784
[MO833] Paramount Iteration,3,75,0.178057,26.606970
[MO833] Paramount Iteration,2,76,0.817706,27.423691
[MO833] Paramount Iteration,0,76,0.819475,27.425545
[MO833] Paramount Iteration,1,76,0.819367,27.426203
[MO833] Paramount Iteration,3,76,0.825349,27.432388
[MO833] Paramount Iteration,0,77,0.178521,27.604161
[MO833] Paramount Iteration,2,77,0.180972,27.604691
[MO833] Paramount Iteration,1,77,0.178688,27.604941
[MO833] Paramount Iteration,3,77,0.173266,27.605742
[MO833] Paramount Iteration,0,78,0.177546,27.781826
[MO833] Paramount Iteration,2,78,0.177092,27.781817
[MO833] Paramount Iteration,1,78,0.177461,27.782455
[MO833] Paramount Iteration,3,78,0.176952,27.782743
[MO833] Paramount Iteration,0,79,0.177126,27.959141
[MO833] Paramount Iteration,2,79,0.177401,27.959250
[MO833] Paramount Iteration,1,79,0.177397,27.959902
[MO833] Paramount Iteration,3,79,0.177421,27.960232
[MO833] Paramount Iteration,2,80,0.826967,28.786250
[MO833] Paramount Iteration,0,80,0.827436,28.786694
[MO833] Paramount Iteration,1,80,0.827167,28.787120
[MO833] Paramount Iteration,3,80,0.826878,28.787175
[MO833] Paramount Iteration,2,81,0.176338,28.962622
[MO833] Paramount Iteration,0,81,0.176077,28.962862
[MO833] Paramount Iteration,1,81,0.176435,28.963608
[MO833] Paramount Iteration,3,81,0.176661,28.963905
[MO833] Paramount Iteration,2,82,0.178400,29.141052
[MO833] Paramount Iteration,0,82,0.178657,29.141608
[MO833] Paramount Iteration,3,82,0.177942,29.141914
[MO833] Paramount Iteration,1,82,0.178310,29.141968
[MO833] Paramount Iteration,0,83,0.832511,29.974213
[MO833] Paramount Iteration,2,83,0.833227,29.974313
[MO833] Paramount Iteration,1,83,0.832820,29.974829
[MO833] Paramount Iteration,3,83,0.833148,29.975124
[MO833] Paramount Iteration,0,84,0.177881,30.152208
[MO833] Paramount Iteration,2,84,0.178047,30.152443
[MO833] Paramount Iteration,1,84,0.177826,30.152704
[MO833] Paramount Iteration,3,84,0.177692,30.152885
[MO833] Paramount Iteration,2,85,0.176606,30.329130
[MO833] Paramount Iteration,0,85,0.177109,30.329435
[MO833] Paramount Iteration,1,85,0.177213,30.329969
[MO833] Paramount Iteration,3,85,0.177168,30.330123
[MO833] Paramount Iteration,0,86,0.178707,30.508230
[MO833] Paramount Iteration,2,86,0.179114,30.508327
[MO833] Paramount Iteration,1,86,0.179074,30.509096
[MO833] Paramount Iteration,3,86,0.179061,30.509248
[MO833] Paramount Iteration,2,87,0.828943,31.337354
[MO833] Paramount Iteration,0,87,0.829236,31.337584
[MO833] Paramount Iteration,1,87,0.828820,31.337970
[MO833] Paramount Iteration,3,87,0.828989,31.338305
[MO833] Paramount Iteration,0,88,0.176607,31.514282
[MO833] Paramount Iteration,2,88,0.177129,31.514572
[MO833] Paramount Iteration,1,88,0.176913,31.514933
[MO833] Paramount Iteration,3,88,0.177078,31.515450
[MO833] Paramount Iteration,0,89,0.178665,31.693060
[MO833] Paramount Iteration,2,89,0.178407,31.693062
[MO833] Paramount Iteration,1,89,0.178702,31.693687
[MO833] Paramount Iteration,3,89,0.178329,31.693847
[MO833] Paramount Iteration,2,90,0.177580,31.870732
[MO833] Paramount Iteration,0,90,0.177947,31.871197
[MO833] Paramount Iteration,3,90,0.177501,31.871415
[MO833] Paramount Iteration,1,90,0.177836,31.871575
[MO833] Paramount Iteration,0,91,0.833112,32.704399
[MO833] Paramount Iteration,2,91,0.833754,32.704567
[MO833] Paramount Iteration,1,91,0.833222,32.704858
[MO833] Paramount Iteration,3,91,0.833691,32.705129
[MO833] Paramount Iteration,0,92,0.178459,32.882973
[MO833] Paramount Iteration,2,92,0.178549,32.883196
[MO833] Paramount Iteration,1,92,0.178614,32.883525
[MO833] Paramount Iteration,3,92,0.178947,32.884139
[MO833] Paramount Iteration,0,93,0.177805,33.060893
[MO833] Paramount Iteration,1,93,0.177709,33.061286
[MO833] Paramount Iteration,2,93,0.178128,33.061360
[MO833] Paramount Iteration,3,93,0.177635,33.061841
[MO833] Paramount Iteration,0,94,0.180899,33.241913
[MO833] Paramount Iteration,2,94,0.180552,33.241946
[MO833] Paramount Iteration,1,94,0.181342,33.242677
[MO833] Paramount Iteration,3,94,0.180874,33.242781
[MO833] Paramount Iteration,2,95,0.839760,34.081740
[MO833] Paramount Iteration,0,95,0.839942,34.082044
[MO833] Paramount Iteration,3,95,0.839734,34.082579
[MO833] Paramount Iteration,1,95,0.839843,34.082569
[MO833] Paramount Iteration,0,96,0.178207,34.260361
[MO833] Paramount Iteration,2,96,0.178673,34.260497
[MO833] Paramount Iteration,1,96,0.178651,34.261255
[MO833] Paramount Iteration,3,96,0.178725,34.261368
[MO833] Paramount Iteration,0,97,0.178191,34.438669
[MO833] Paramount Iteration,2,97,0.178435,34.439013
[MO833] Paramount Iteration,1,97,0.177917,34.439223
[MO833] Paramount Iteration,3,97,0.178452,34.439887
[MO833] Paramount Iteration,0,98,0.181370,34.620153
[MO833] Paramount Iteration,2,98,0.181281,34.620379
[MO833] Paramount Iteration,1,98,0.181357,34.620630
[MO833] Paramount Iteration,3,98,0.181137,34.621091
[MO833] Paramount Iteration,0,99,0.839449,35.459718
[MO833] Paramount Iteration,2,99,0.839413,35.459876
[MO833] Paramount Iteration,1,99,0.839808,35.460488
[MO833] Paramount Iteration,3,99,0.839516,35.460674
     100   0.97398979   0.44119628    20.501632    22.403812    4.6781846 
[MO833] Paramount Iteration,2,100,0.247735,35.707695
[MO833] Paramount Iteration,1,100,0.247096,35.707636
[MO833] Paramount Iteration,3,100,0.247008,35.707704
[MO833] Paramount Iteration,0,100,0.247921,35.707760
Loop time of 33.9372 on 4 procs for 100 steps with 2048000 atoms

Performance: 3055.056 tau/day, 2.947 timesteps/s
99.2% CPU use with 4 MPI tasks x 1 OpenMP threads

MPI task timing breakdown:
Section |  min time  |  avg time  |  max time  |%varavg| %total
---------------------------------------------------------------
Pair    | 7.648      | 7.67       | 7.6922     |   0.6 | 22.60
Bond    | 4.094      | 4.1174     | 4.139      |   1.1 | 12.13
Neigh   | 15.001     | 15.009     | 15.015     |   0.1 | 44.23
Comm    | 1.9553     | 1.9976     | 2.0287     |   2.0 |  5.89
Output  | 0.0031695  | 0.0033978  | 0.0036528  |   0.4 |  0.01
Modify  | 4.1024     | 4.1173     | 4.1482     |   0.9 | 12.13
Other   |            | 1.022      |            |       |  3.01

Nlocal:    512000 ave 512077 max 511920 min
Histogram: 1 0 0 0 0 2 0 0 0 1
Nghost:    59986.2 ave 60058 max 59934 min
Histogram: 2 0 0 0 0 0 1 0 0 1
Neighs:    2.493e+06 ave 2.49358e+06 max 2.49261e+06 min
Histogram: 1 1 0 0 1 0 0 0 0 1

Total # of neighbors = 9972010
Ave neighs/atom = 4.86915
Ave special neighs/atom = 1.98
Neighbor list builds = 26
Dangerous builds = 0
Total wall time: 0:00:35
[MO833] Beta,0,0.055074
[MO833] PI avg,0,0.339371,100
[MO833] Total time,35.806118
[MO833] Beta,1,0.055082
[MO833] Beta,2,0.055079
[MO833] PI avg,1,0.339369,100
[MO833] PI avg,2,0.339371,100
[MO833] Beta,3,0.055086
[MO833] PI avg,3,0.339371,100
