LAMMPS (3 Mar 2020)
OMP_NUM_THREADS environment is not set. Defaulting to 1 thread. (src/comm.cpp:94)
  using 1 OpenMP thread(s) per MPI task
Reading data file ...
  orthogonal box = (-27.5 -38.5 -36.3646) to (27.5 38.5 36.3615)
  2 by 4 by 2 MPI processor grid
  reading atoms ...
  32000 atoms
  reading velocities ...
  32000 velocities
  scanning bonds ...
  4 = max bonds/atom
  scanning angles ...
  8 = max angles/atom
  scanning dihedrals ...
  18 = max dihedrals/atom
  scanning impropers ...
  2 = max impropers/atom
  reading bonds ...
  27723 bonds
  reading angles ...
  40467 angles
  reading dihedrals ...
  56829 dihedrals
  reading impropers ...
  1034 impropers
Finding 1-2 1-3 1-4 neighbors ...
  special bond factors lj:   0          0          0         
  special bond factors coul: 0          0          0         
  4 = max # of 1-2 neighbors
  12 = max # of 1-3 neighbors
  24 = max # of 1-4 neighbors
  26 = max # of special neighbors
  special bonds CPU = 0.0112226 secs
  read_data CPU = 0.586488 secs
Replicating atoms ...
  orthogonal box = (-27.5 -38.5 -36.3646) to (27.5 38.5 36.3615)
  2 by 4 by 2 MPI processor grid
  32000 atoms
  27723 bonds
  40467 angles
  56829 dihedrals
  1034 impropers
Finding 1-2 1-3 1-4 neighbors ...
  special bond factors lj:   0          0          0         
  special bond factors coul: 0          0          0         
  4 = max # of 1-2 neighbors
  12 = max # of 1-3 neighbors
  24 = max # of 1-4 neighbors
  26 = max # of special neighbors
  special bonds CPU = 0.00700212 secs
  replicate CPU = 0.0477304 secs
Finding SHAKE clusters ...
  1617 = # of size 2 clusters
  3633 = # of size 3 clusters
  747 = # of size 4 clusters
  4233 = # of frozen angles
  find clusters CPU = 0.00561762 secs
PPPM initialization ...
  using 12-bit tables for long-range coulomb (src/kspace.cpp:332)
  G vector (1/distance) = 0.248835
  grid = 25 32 32
  stencil order = 5
  estimated absolute RMS force accuracy = 0.0355478
  estimated relative force accuracy = 0.000107051
  using double precision KISS FFT
  3d grid and FFT values/proc = 4914 1664
Neighbor list info ...
  update every 1 steps, delay 5 steps, check yes
  max neighbors/atom: 2000, page size: 100000
  master list distance cutoff = 12
  ghost atom cutoff = 12
  binsize = 6, bins = 10 13 13
  1 neighbor lists, perpetual/occasional/extra = 1 0 0
  (1) pair lj/charmm/coul/long, perpetual
      attributes: half, newton on
      pair build: half/bin/newton
      stencil: half/bin/3d/newton
      bin: standard
Setting up Verlet run ...
  Unit style    : real
  Current step  : 0
  Time step     : 2
Per MPI rank memory allocation (min/avg/max) = 21.86 | 21.97 | 22.45 Mbytes
---------------- Step        0 ----- CPU =      0.0000 (sec) ----------------
TotEng   =    -25356.2064 KinEng   =     21444.8313 Temp     =       299.0397 
PotEng   =    -46801.0377 E_bond   =      2537.9940 E_angle  =     10921.3742 
E_dihed  =      5211.7865 E_impro  =       213.5116 E_vdwl   =     -2307.8634 
E_coul   =    207025.8927 E_long   =   -270403.7333 Press    =      -149.3301 
Volume   =    307995.0335 
[MO833] Paramount Iteration,0,1,0.028134,0.778156
[MO833] Paramount Iteration,1,1,0.028131,0.778178
[MO833] Paramount Iteration,2,1,0.028128,0.778550
[MO833] Paramount Iteration,4,1,0.028132,0.778414
[MO833] Paramount Iteration,6,1,0.028132,0.778460
[MO833] Paramount Iteration,10,1,0.028102,0.776656
[MO833] Paramount Iteration,12,1,0.028107,0.774551
[MO833] Paramount Iteration,14,1,0.028099,0.774507
[MO833] Paramount Iteration,8,1,0.028138,0.778438
[MO833] Paramount Iteration,3,1,0.028126,0.778553
[MO833] Paramount Iteration,5,1,0.028132,0.778416
[MO833] Paramount Iteration,7,1,0.028132,0.778454
[MO833] Paramount Iteration,11,1,0.028103,0.776648
[MO833] Paramount Iteration,13,1,0.028108,0.774552
[MO833] Paramount Iteration,15,1,0.028099,0.774507
[MO833] Paramount Iteration,9,1,0.028139,0.778450
[MO833] Paramount Iteration,0,2,0.028280,0.806663
[MO833] Paramount Iteration,2,2,0.028430,0.807034
[MO833] Paramount Iteration,4,2,0.028498,0.806935
[MO833] Paramount Iteration,6,2,0.028455,0.806938
[MO833] Paramount Iteration,10,2,0.028410,0.805121
[MO833] Paramount Iteration,12,2,0.028470,0.803046
[MO833] Paramount Iteration,14,2,0.028431,0.802959
[MO833] Paramount Iteration,8,2,0.028448,0.806907
[MO833] Paramount Iteration,1,2,0.028489,0.806688
[MO833] Paramount Iteration,3,2,0.028466,0.807035
[MO833] Paramount Iteration,5,2,0.028458,0.806937
[MO833] Paramount Iteration,7,2,0.028414,0.806932
[MO833] Paramount Iteration,11,2,0.028444,0.805112
[MO833] Paramount Iteration,13,2,0.028437,0.803046
[MO833] Paramount Iteration,15,2,0.028401,0.802963
[MO833] Paramount Iteration,9,2,0.028415,0.806919
[MO833] Paramount Iteration,2,3,0.028586,0.835632
[MO833] Paramount Iteration,4,3,0.028515,0.835494
[MO833] Paramount Iteration,6,3,0.028475,0.835475
[MO833] Paramount Iteration,10,3,0.028576,0.833717
[MO833] Paramount Iteration,12,3,0.028492,0.831594
[MO833] Paramount Iteration,14,3,0.028491,0.831513
[MO833] Paramount Iteration,8,3,0.028550,0.835516
[MO833] Paramount Iteration,3,3,0.028562,0.835635
[MO833] Paramount Iteration,5,3,0.028544,0.835496
[MO833] Paramount Iteration,7,3,0.028525,0.835471
[MO833] Paramount Iteration,11,3,0.028529,0.833704
[MO833] Paramount Iteration,13,3,0.028536,0.831599
[MO833] Paramount Iteration,15,3,0.028532,0.831513
[MO833] Paramount Iteration,9,3,0.028588,0.835524
[MO833] Paramount Iteration,0,3,0.028579,0.835489
[MO833] Paramount Iteration,1,3,0.028808,0.835514
[MO833] Paramount Iteration,0,4,0.028294,0.863860
[MO833] Paramount Iteration,4,4,0.028579,0.864088
[MO833] Paramount Iteration,6,4,0.028617,0.864135
[MO833] Paramount Iteration,10,4,0.028659,0.862392
[MO833] Paramount Iteration,12,4,0.028545,0.860194
[MO833] Paramount Iteration,14,4,0.028580,0.860153
[MO833] Paramount Iteration,8,4,0.028577,0.864110
[MO833] Paramount Iteration,1,4,0.028353,0.863886
[MO833] Paramount Iteration,2,4,0.028670,0.864312
[MO833] Paramount Iteration,5,4,0.028540,0.864090
[MO833] Paramount Iteration,7,4,0.028646,0.864129
[MO833] Paramount Iteration,11,4,0.028611,0.862379
[MO833] Paramount Iteration,13,4,0.028583,0.860194
[MO833] Paramount Iteration,15,4,0.028624,0.860156
[MO833] Paramount Iteration,9,4,0.028542,0.864121
[MO833] Paramount Iteration,3,4,0.028646,0.864313
[MO833] Paramount Iteration,2,5,0.028679,0.893056
[MO833] Paramount Iteration,4,5,0.028797,0.892924
[MO833] Paramount Iteration,6,5,0.028743,0.892920
[MO833] Paramount Iteration,10,5,0.028702,0.891144
[MO833] Paramount Iteration,12,5,0.028819,0.889032
[MO833] Paramount Iteration,14,5,0.028750,0.888956
[MO833] Paramount Iteration,8,5,0.028770,0.892939
[MO833] Paramount Iteration,1,5,0.028819,0.892723
[MO833] Paramount Iteration,3,5,0.028735,0.893058
[MO833] Paramount Iteration,5,5,0.028822,0.892927
[MO833] Paramount Iteration,7,5,0.028772,0.892914
[MO833] Paramount Iteration,11,5,0.028734,0.891133
[MO833] Paramount Iteration,13,5,0.028786,0.889034
[MO833] Paramount Iteration,15,5,0.028786,0.888959
[MO833] Paramount Iteration,9,5,0.028819,0.892960
[MO833] Paramount Iteration,0,5,0.028590,0.892700
[MO833] Paramount Iteration,0,6,0.028375,0.921299
[MO833] Paramount Iteration,2,6,0.028592,0.921658
[MO833] Paramount Iteration,4,6,0.028578,0.921517
[MO833] Paramount Iteration,6,6,0.028595,0.921529
[MO833] Paramount Iteration,10,6,0.028592,0.919755
[MO833] Paramount Iteration,12,6,0.028589,0.917646
[MO833] Paramount Iteration,14,6,0.028634,0.917610
[MO833] Paramount Iteration,8,6,0.028534,0.921540
[MO833] Paramount Iteration,1,6,0.028518,0.921325
[MO833] Paramount Iteration,3,6,0.028570,0.921660
[MO833] Paramount Iteration,5,6,0.028544,0.921519
[MO833] Paramount Iteration,7,6,0.028560,0.921523
[MO833] Paramount Iteration,11,6,0.028539,0.919747
[MO833] Paramount Iteration,13,6,0.028540,0.917647
[MO833] Paramount Iteration,15,6,0.028600,0.917610
[MO833] Paramount Iteration,9,6,0.028573,0.921547
[MO833] Paramount Iteration,0,7,0.028641,0.950171
[MO833] Paramount Iteration,2,7,0.028914,0.950582
[MO833] Paramount Iteration,4,7,0.028882,0.950437
[MO833] Paramount Iteration,10,7,0.028866,0.948674
[MO833] Paramount Iteration,12,7,0.028885,0.946547
[MO833] Paramount Iteration,8,7,0.028866,0.950424
[MO833] Paramount Iteration,1,7,0.028844,0.950196
[MO833] Paramount Iteration,3,7,0.028892,0.950584
[MO833] Paramount Iteration,5,7,0.028908,0.950441
[MO833] Paramount Iteration,6,7,0.028942,0.950484
[MO833] Paramount Iteration,11,7,0.028900,0.948665
[MO833] Paramount Iteration,13,7,0.028853,0.946549
[MO833] Paramount Iteration,14,7,0.028844,0.946524
[MO833] Paramount Iteration,9,7,0.028832,0.950434
[MO833] Paramount Iteration,7,7,0.028906,0.950478
[MO833] Paramount Iteration,15,7,0.028884,0.946524
[MO833] Paramount Iteration,0,8,0.028165,0.978580
[MO833] Paramount Iteration,1,8,0.028394,0.978605
[MO833] Paramount Iteration,2,8,0.028372,0.978995
[MO833] Paramount Iteration,4,8,0.028365,0.978841
[MO833] Paramount Iteration,6,8,0.028395,0.978891
[MO833] Paramount Iteration,10,8,0.028384,0.977111
[MO833] Paramount Iteration,12,8,0.028385,0.974987
[MO833] Paramount Iteration,14,8,0.028379,0.974962
[MO833] Paramount Iteration,8,8,0.028373,0.978856
[MO833] Paramount Iteration,3,8,0.028400,0.978993
[MO833] Paramount Iteration,5,8,0.028395,0.978847
[MO833] Paramount Iteration,7,8,0.028357,0.978883
[MO833] Paramount Iteration,11,8,0.028418,0.977102
[MO833] Paramount Iteration,13,8,0.028424,0.974987
[MO833] Paramount Iteration,15,8,0.028421,0.974962
[MO833] Paramount Iteration,9,8,0.028415,0.978868
[MO833] Paramount Iteration,0,9,0.028334,1.006933
[MO833] Paramount Iteration,2,9,0.028310,1.007342
[MO833] Paramount Iteration,4,9,0.028320,1.007197
[MO833] Paramount Iteration,10,9,0.028267,1.005432
[MO833] Paramount Iteration,12,9,0.028251,1.003293
[MO833] Paramount Iteration,8,9,0.028273,1.007187
[MO833] Paramount Iteration,1,9,0.028295,1.006959
[MO833] Paramount Iteration,3,9,0.028339,1.007343
[MO833] Paramount Iteration,5,9,0.028345,1.007199
[MO833] Paramount Iteration,6,9,0.028333,1.007235
[MO833] Paramount Iteration,11,9,0.028304,1.005424
[MO833] Paramount Iteration,13,9,0.028291,1.003294
[MO833] Paramount Iteration,14,9,0.028287,1.003268
[MO833] Paramount Iteration,9,9,0.028326,1.007211
[MO833] Paramount Iteration,7,9,0.028290,1.007229
[MO833] Paramount Iteration,15,9,0.028257,1.003271
[MO833] Paramount Iteration,0,10,0.063666,1.070617
[MO833] Paramount Iteration,2,10,0.063635,1.071015
[MO833] Paramount Iteration,6,10,0.063628,1.070908
[MO833] Paramount Iteration,10,10,0.063677,1.069129
[MO833] Paramount Iteration,12,10,0.063643,1.066992
[MO833] Paramount Iteration,14,10,0.063679,1.066964
[MO833] Paramount Iteration,8,10,0.063642,1.070889
[MO833] Paramount Iteration,1,10,0.063612,1.070642
[MO833] Paramount Iteration,3,10,0.063664,1.071017
[MO833] Paramount Iteration,4,10,0.063645,1.070877
[MO833] Paramount Iteration,7,10,0.063658,1.070902
[MO833] Paramount Iteration,11,10,0.063634,1.069120
[MO833] Paramount Iteration,13,10,0.063686,1.066996
[MO833] Paramount Iteration,15,10,0.063644,1.066964
[MO833] Paramount Iteration,9,10,0.063683,1.070901
[MO833] Paramount Iteration,5,10,0.063669,1.070879
[MO833] Paramount Iteration,0,11,0.028444,1.099298
[MO833] Paramount Iteration,10,11,0.028660,1.097806
[MO833] Paramount Iteration,12,11,0.028658,1.095670
[MO833] Paramount Iteration,8,11,0.028608,1.099558
[MO833] Paramount Iteration,1,11,0.028662,1.099324
[MO833] Paramount Iteration,2,11,0.028663,1.099719
[MO833] Paramount Iteration,4,11,0.028675,1.099570
[MO833] Paramount Iteration,6,11,0.028670,1.099623
[MO833] Paramount Iteration,11,11,0.028616,1.097796
[MO833] Paramount Iteration,13,11,0.028629,1.095674
[MO833] Paramount Iteration,14,11,0.028623,1.095648
[MO833] Paramount Iteration,9,11,0.028652,1.099570
[MO833] Paramount Iteration,3,11,0.028694,1.099720
[MO833] Paramount Iteration,5,11,0.028638,1.099572
[MO833] Paramount Iteration,7,11,0.028699,1.099616
[MO833] Paramount Iteration,15,11,0.028670,1.095653
[MO833] Paramount Iteration,0,12,0.028718,1.128036
[MO833] Paramount Iteration,2,12,0.028685,1.128443
[MO833] Paramount Iteration,4,12,0.028699,1.128286
[MO833] Paramount Iteration,10,12,0.028678,1.126535
[MO833] Paramount Iteration,12,12,0.028693,1.124421
[MO833] Paramount Iteration,14,12,0.028671,1.124380
[MO833] Paramount Iteration,8,12,0.028716,1.128292
[MO833] Paramount Iteration,1,12,0.028677,1.128061
[MO833] Paramount Iteration,3,12,0.028714,1.128444
[MO833] Paramount Iteration,5,12,0.028660,1.128288
[MO833] Paramount Iteration,6,12,0.028671,1.128337
[MO833] Paramount Iteration,11,12,0.028711,1.126526
[MO833] Paramount Iteration,13,12,0.028732,1.124421
[MO833] Paramount Iteration,15,12,0.028712,1.124380
[MO833] Paramount Iteration,9,12,0.028683,1.128303
[MO833] Paramount Iteration,7,12,0.028700,1.128331
[MO833] Paramount Iteration,2,13,0.028506,1.156987
[MO833] Paramount Iteration,6,13,0.028495,1.156873
[MO833] Paramount Iteration,10,13,0.028524,1.155076
[MO833] Paramount Iteration,14,13,0.028521,1.152919
[MO833] Paramount Iteration,3,13,0.028535,1.156988
[MO833] Paramount Iteration,7,13,0.028522,1.156867
[MO833] Paramount Iteration,11,13,0.028481,1.155067
[MO833] Paramount Iteration,15,13,0.028489,1.152920
[MO833] Paramount Iteration,4,13,0.028657,1.156958
[MO833] Paramount Iteration,12,13,0.028619,1.153059
[MO833] Paramount Iteration,8,13,0.028605,1.156957
[MO833] Paramount Iteration,5,13,0.028620,1.156960
[MO833] Paramount Iteration,13,13,0.028584,1.153059
[MO833] Paramount Iteration,9,13,0.028641,1.156963
[MO833] Paramount Iteration,0,13,0.028589,1.156876
[MO833] Paramount Iteration,1,13,0.028821,1.156901
[MO833] Paramount Iteration,0,14,0.028326,1.185278
[MO833] Paramount Iteration,1,14,0.028384,1.185301
[MO833] Paramount Iteration,2,14,0.028671,1.185697
[MO833] Paramount Iteration,4,14,0.028567,1.185539
[MO833] Paramount Iteration,6,14,0.028670,1.185585
[MO833] Paramount Iteration,10,14,0.028678,1.183807
[MO833] Paramount Iteration,12,14,0.028601,1.181680
[MO833] Paramount Iteration,14,14,0.028672,1.181648
[MO833] Paramount Iteration,8,14,0.028582,1.185555
[MO833] Paramount Iteration,3,14,0.028701,1.185698
[MO833] Paramount Iteration,5,14,0.028531,1.185541
[MO833] Paramount Iteration,7,14,0.028697,1.185579
[MO833] Paramount Iteration,11,14,0.028713,1.183798
[MO833] Paramount Iteration,13,14,0.028560,1.181681
[MO833] Paramount Iteration,15,14,0.028710,1.181648
[MO833] Paramount Iteration,9,14,0.028548,1.185566
[MO833] Paramount Iteration,0,15,0.028777,1.214072
[MO833] Paramount Iteration,2,15,0.028711,1.214446
[MO833] Paramount Iteration,4,15,0.028750,1.214303
[MO833] Paramount Iteration,6,15,0.028749,1.214348
[MO833] Paramount Iteration,10,15,0.028730,1.212558
[MO833] Paramount Iteration,12,15,0.028714,1.210456
[MO833] Paramount Iteration,14,15,0.028716,1.210382
[MO833] Paramount Iteration,8,15,0.028749,1.214322
[MO833] Paramount Iteration,1,15,0.028736,1.214097
[MO833] Paramount Iteration,3,15,0.028739,1.214447
[MO833] Paramount Iteration,5,15,0.028722,1.214311
[MO833] Paramount Iteration,7,15,0.028713,1.214342
[MO833] Paramount Iteration,11,15,0.028695,1.212549
[MO833] Paramount Iteration,13,15,0.028758,1.210457
[MO833] Paramount Iteration,15,15,0.028683,1.210383
[MO833] Paramount Iteration,9,15,0.028716,1.214333
[MO833] Paramount Iteration,0,16,0.028412,1.242730
[MO833] Paramount Iteration,1,16,0.028640,1.242756
[MO833] Paramount Iteration,2,16,0.028663,1.243149
[MO833] Paramount Iteration,4,16,0.028659,1.243003
[MO833] Paramount Iteration,6,16,0.028659,1.243046
[MO833] Paramount Iteration,10,16,0.028684,1.241259
[MO833] Paramount Iteration,12,16,0.028659,1.239132
[MO833] Paramount Iteration,14,16,0.028715,1.239115
[MO833] Paramount Iteration,8,16,0.028666,1.243006
[MO833] Paramount Iteration,3,16,0.028691,1.243148
[MO833] Paramount Iteration,5,16,0.028686,1.243006
[MO833] Paramount Iteration,7,16,0.028683,1.243038
[MO833] Paramount Iteration,11,16,0.028643,1.241250
[MO833] Paramount Iteration,13,16,0.028624,1.239132
[MO833] Paramount Iteration,15,16,0.028682,1.239115
[MO833] Paramount Iteration,9,16,0.028632,1.243017
[MO833] Paramount Iteration,0,17,0.028778,1.271527
[MO833] Paramount Iteration,2,17,0.028768,1.271925
[MO833] Paramount Iteration,4,17,0.028752,1.271768
[MO833] Paramount Iteration,8,17,0.028776,1.271800
[MO833] Paramount Iteration,1,17,0.028738,1.271550
[MO833] Paramount Iteration,3,17,0.028745,1.271926
[MO833] Paramount Iteration,5,17,0.028721,1.271773
[MO833] Paramount Iteration,6,17,0.028753,1.271835
[MO833] Paramount Iteration,10,17,0.028753,1.270030
[MO833] Paramount Iteration,12,17,0.028769,1.267917
[MO833] Paramount Iteration,14,17,0.028752,1.267883
[MO833] Paramount Iteration,9,17,0.028741,1.271811
[MO833] Paramount Iteration,7,17,0.028779,1.271829
[MO833] Paramount Iteration,11,17,0.028708,1.270021
[MO833] Paramount Iteration,13,17,0.028736,1.267917
[MO833] Paramount Iteration,15,17,0.028719,1.267883
[MO833] Paramount Iteration,0,18,0.064133,1.335901
[MO833] Paramount Iteration,2,18,0.064368,1.336332
[MO833] Paramount Iteration,4,18,0.064361,1.336166
[MO833] Paramount Iteration,12,18,0.064298,1.332272
[MO833] Paramount Iteration,8,18,0.064340,1.336159
[MO833] Paramount Iteration,1,18,0.064358,1.335926
[MO833] Paramount Iteration,3,18,0.064397,1.336333
[MO833] Paramount Iteration,5,18,0.064385,1.336168
[MO833] Paramount Iteration,6,18,0.064357,1.336233
[MO833] Paramount Iteration,10,18,0.064313,1.334411
[MO833] Paramount Iteration,13,18,0.064341,1.332275
[MO833] Paramount Iteration,14,18,0.064353,1.332254
[MO833] Paramount Iteration,9,18,0.064306,1.336170
[MO833] Paramount Iteration,7,18,0.064385,1.336227
[MO833] Paramount Iteration,11,18,0.064358,1.334398
[MO833] Paramount Iteration,15,18,0.064326,1.332261
[MO833] Paramount Iteration,0,19,0.028630,1.364778
[MO833] Paramount Iteration,2,19,0.028826,1.365199
[MO833] Paramount Iteration,4,19,0.028824,1.365031
[MO833] Paramount Iteration,6,19,0.028795,1.365045
[MO833] Paramount Iteration,10,19,0.028840,1.363271
[MO833] Paramount Iteration,12,19,0.028806,1.361139
[MO833] Paramount Iteration,14,19,0.028763,1.361080
[MO833] Paramount Iteration,8,19,0.028855,1.365031
[MO833] Paramount Iteration,1,19,0.028858,1.364803
[MO833] Paramount Iteration,3,19,0.028857,1.365200
[MO833] Paramount Iteration,5,19,0.028852,1.365035
[MO833] Paramount Iteration,7,19,0.028737,1.365039
[MO833] Paramount Iteration,11,19,0.028795,1.363261
[MO833] Paramount Iteration,13,19,0.028851,1.361142
[MO833] Paramount Iteration,15,19,0.028806,1.361081
[MO833] Paramount Iteration,9,19,0.028820,1.365040
[MO833] Paramount Iteration,0,20,0.028553,1.393561
[MO833] Paramount Iteration,10,20,0.028733,1.392053
[MO833] Paramount Iteration,12,20,0.028772,1.389929
[MO833] Paramount Iteration,8,20,0.028721,1.393811
[MO833] Paramount Iteration,1,20,0.028764,1.393586
[MO833] Paramount Iteration,2,20,0.028737,1.393976
[MO833] Paramount Iteration,4,20,0.028775,1.393822
[MO833] Paramount Iteration,6,20,0.028818,1.393880
[MO833] Paramount Iteration,11,20,0.028767,1.392046
[MO833] Paramount Iteration,13,20,0.028742,1.389931
[MO833] Paramount Iteration,14,20,0.028804,1.389903
[MO833] Paramount Iteration,9,20,0.028762,1.393822
[MO833] Paramount Iteration,3,20,0.028769,1.393978
[MO833] Paramount Iteration,5,20,0.028738,1.393824
[MO833] Paramount Iteration,7,20,0.028780,1.393874
[MO833] Paramount Iteration,15,20,0.028773,1.389905
[MO833] Paramount Iteration,0,21,0.028882,1.422464
[MO833] Paramount Iteration,2,21,0.028848,1.422865
[MO833] Paramount Iteration,4,21,0.028831,1.422700
[MO833] Paramount Iteration,1,21,0.028833,1.422487
[MO833] Paramount Iteration,3,21,0.028875,1.422864
[MO833] Paramount Iteration,5,21,0.028868,1.422709
[MO833] Paramount Iteration,6,21,0.028819,1.422750
[MO833] Paramount Iteration,10,21,0.028876,1.420978
[MO833] Paramount Iteration,12,21,0.028913,1.418860
[MO833] Paramount Iteration,14,21,0.028885,1.418847
[MO833] Paramount Iteration,8,21,0.028928,1.422757
[MO833] Paramount Iteration,7,21,0.028851,1.422742
[MO833] Paramount Iteration,11,21,0.028909,1.420969
[MO833] Paramount Iteration,13,21,0.028879,1.418860
[MO833] Paramount Iteration,15,21,0.028924,1.418847
[MO833] Paramount Iteration,9,21,0.028895,1.422769
[MO833] Paramount Iteration,2,22,0.028920,1.451824
[MO833] Paramount Iteration,4,22,0.028933,1.451676
[MO833] Paramount Iteration,6,22,0.028904,1.451671
[MO833] Paramount Iteration,10,22,0.028869,1.449898
[MO833] Paramount Iteration,12,22,0.028906,1.447785
[MO833] Paramount Iteration,14,22,0.028839,1.447702
[MO833] Paramount Iteration,3,22,0.028948,1.451825
[MO833] Paramount Iteration,5,22,0.028962,1.451679
[MO833] Paramount Iteration,7,22,0.028851,1.451666
[MO833] Paramount Iteration,11,22,0.028900,1.449887
[MO833] Paramount Iteration,13,22,0.028875,1.447788
[MO833] Paramount Iteration,15,22,0.028808,1.447702
[MO833] Paramount Iteration,8,22,0.028888,1.451706
[MO833] Paramount Iteration,9,22,0.028925,1.451713
[MO833] Paramount Iteration,0,22,0.028971,1.451665
[MO833] Paramount Iteration,1,22,0.029184,1.451690
[MO833] Paramount Iteration,0,23,0.028950,1.480705
[MO833] Paramount Iteration,4,23,0.029271,1.480962
[MO833] Paramount Iteration,11,23,0.029284,1.479189
[MO833] Paramount Iteration,12,23,0.029266,1.477068
[MO833] Paramount Iteration,8,23,0.029237,1.480959
[MO833] Paramount Iteration,1,23,0.029025,1.480728
[MO833] Paramount Iteration,2,23,0.029266,1.481131
[MO833] Paramount Iteration,5,23,0.029237,1.480964
[MO833] Paramount Iteration,6,23,0.029310,1.481026
[MO833] Paramount Iteration,10,23,0.029267,1.479216
[MO833] Paramount Iteration,13,23,0.029235,1.477071
[MO833] Paramount Iteration,14,23,0.029280,1.477044
[MO833] Paramount Iteration,9,23,0.029199,1.480967
[MO833] Paramount Iteration,3,23,0.029294,1.481132
[MO833] Paramount Iteration,7,23,0.029339,1.481020
[MO833] Paramount Iteration,15,23,0.029327,1.477050
[MO833] Paramount Iteration,0,24,0.028968,1.509689
[MO833] Paramount Iteration,1,24,0.028915,1.509715
[MO833] Paramount Iteration,2,24,0.028943,1.510116
[MO833] Paramount Iteration,4,24,0.028943,1.509946
[MO833] Paramount Iteration,6,24,0.028939,1.510009
[MO833] Paramount Iteration,10,24,0.029007,1.508230
[MO833] Paramount Iteration,12,24,0.029015,1.506102
[MO833] Paramount Iteration,14,24,0.028974,1.506080
[MO833] Paramount Iteration,8,24,0.028954,1.509976
[MO833] Paramount Iteration,3,24,0.028966,1.510110
[MO833] Paramount Iteration,5,24,0.028976,1.509955
[MO833] Paramount Iteration,7,24,0.028964,1.509999
[MO833] Paramount Iteration,11,24,0.028974,1.508221
[MO833] Paramount Iteration,13,24,0.028981,1.506102
[MO833] Paramount Iteration,15,24,0.029016,1.506080
[MO833] Paramount Iteration,9,24,0.028999,1.509987
[MO833] Paramount Iteration,0,25,0.028946,1.538653
[MO833] Paramount Iteration,1,25,0.028905,1.538678
[MO833] Paramount Iteration,2,25,0.028921,1.539073
[MO833] Paramount Iteration,4,25,0.028929,1.538916
[MO833] Paramount Iteration,6,25,0.028927,1.538974
[MO833] Paramount Iteration,10,25,0.028909,1.537191
[MO833] Paramount Iteration,12,25,0.028903,1.535073
[MO833] Paramount Iteration,8,25,0.028944,1.538939
[MO833] Paramount Iteration,3,25,0.028948,1.539072
[MO833] Paramount Iteration,5,25,0.028958,1.538922
[MO833] Paramount Iteration,7,25,0.028952,1.538965
[MO833] Paramount Iteration,11,25,0.028956,1.537195
[MO833] Paramount Iteration,13,25,0.028942,1.535073
[MO833] Paramount Iteration,14,25,0.028951,1.535048
[MO833] Paramount Iteration,9,25,0.028909,1.538950
[MO833] Paramount Iteration,15,25,0.028917,1.535046
[MO833] Paramount Iteration,2,26,0.064424,1.603537
[MO833] Paramount Iteration,4,26,0.064419,1.603374
[MO833] Paramount Iteration,10,26,0.064378,1.601622
[MO833] Paramount Iteration,12,26,0.064368,1.599497
[MO833] Paramount Iteration,8,26,0.064425,1.603384
[MO833] Paramount Iteration,0,26,0.064244,1.603141
[MO833] Paramount Iteration,3,26,0.064453,1.603538
[MO833] Paramount Iteration,5,26,0.064444,1.603376
[MO833] Paramount Iteration,6,26,0.064444,1.603430
[MO833] Paramount Iteration,11,26,0.064411,1.601613
[MO833] Paramount Iteration,13,26,0.064412,1.599500
[MO833] Paramount Iteration,14,26,0.064410,1.599475
[MO833] Paramount Iteration,9,26,0.064390,1.603395
[MO833] Paramount Iteration,1,26,0.064471,1.603166
[MO833] Paramount Iteration,7,26,0.064409,1.603424
[MO833] Paramount Iteration,15,26,0.064377,1.599475
[MO833] Paramount Iteration,2,27,0.028980,1.632562
[MO833] Paramount Iteration,0,27,0.029018,1.632180
[MO833] Paramount Iteration,3,27,0.029008,1.632560
[MO833] Paramount Iteration,4,27,0.029021,1.632437
[MO833] Paramount Iteration,6,27,0.029003,1.632451
[MO833] Paramount Iteration,10,27,0.028995,1.630671
[MO833] Paramount Iteration,12,27,0.029017,1.628577
[MO833] Paramount Iteration,14,27,0.029019,1.628513
[MO833] Paramount Iteration,8,27,0.029052,1.632455
[MO833] Paramount Iteration,1,27,0.028959,1.632205
[MO833] Paramount Iteration,5,27,0.029047,1.632440
[MO833] Paramount Iteration,7,27,0.028959,1.632445
[MO833] Paramount Iteration,11,27,0.029029,1.630662
[MO833] Paramount Iteration,13,27,0.029059,1.628577
[MO833] Paramount Iteration,15,27,0.028983,1.628512
[MO833] Paramount Iteration,9,27,0.029020,1.632466
[MO833] Paramount Iteration,0,28,0.029106,1.661306
[MO833] Paramount Iteration,1,28,0.029027,1.661327
[MO833] Paramount Iteration,2,28,0.029135,1.661736
[MO833] Paramount Iteration,4,28,0.029085,1.661562
[MO833] Paramount Iteration,6,28,0.029156,1.661627
[MO833] Paramount Iteration,10,28,0.029125,1.659848
[MO833] Paramount Iteration,12,28,0.029079,1.657718
[MO833] Paramount Iteration,14,28,0.029162,1.657691
[MO833] Paramount Iteration,8,28,0.029122,1.661599
[MO833] Paramount Iteration,3,28,0.029159,1.661731
[MO833] Paramount Iteration,5,28,0.029118,1.661572
[MO833] Paramount Iteration,7,28,0.029114,1.661618
[MO833] Paramount Iteration,11,28,0.029160,1.659839
[MO833] Paramount Iteration,13,28,0.029123,1.657719
[MO833] Paramount Iteration,15,28,0.029129,1.657691
[MO833] Paramount Iteration,9,28,0.029090,1.661613
[MO833] Paramount Iteration,0,29,0.028791,1.690340
[MO833] Paramount Iteration,2,29,0.028984,1.690758
[MO833] Paramount Iteration,4,29,0.028995,1.690597
[MO833] Paramount Iteration,10,29,0.028936,1.688832
[MO833] Paramount Iteration,12,29,0.028933,1.686710
[MO833] Paramount Iteration,14,29,0.028969,1.686678
[MO833] Paramount Iteration,8,29,0.028970,1.690591
[MO833] Paramount Iteration,1,29,0.029013,1.690365
[MO833] Paramount Iteration,3,29,0.029014,1.690759
[MO833] Paramount Iteration,5,29,0.029019,1.690599
[MO833] Paramount Iteration,6,29,0.029026,1.690668
[MO833] Paramount Iteration,11,29,0.028968,1.688823
[MO833] Paramount Iteration,13,29,0.028976,1.686711
[MO833] Paramount Iteration,15,29,0.028943,1.686685
[MO833] Paramount Iteration,9,29,0.028933,1.690599
[MO833] Paramount Iteration,7,29,0.028972,1.690663
[MO833] Paramount Iteration,0,30,0.028909,1.719506
[MO833] Paramount Iteration,2,30,0.029130,1.719927
[MO833] Paramount Iteration,4,30,0.029119,1.719767
[MO833] Paramount Iteration,10,30,0.029115,1.718000
[MO833] Paramount Iteration,12,30,0.029102,1.715872
[MO833] Paramount Iteration,14,30,0.029150,1.715852
[MO833] Paramount Iteration,8,30,0.029157,1.719766
[MO833] Paramount Iteration,1,30,0.029148,1.719531
[MO833] Paramount Iteration,3,30,0.029159,1.719928
[MO833] Paramount Iteration,5,30,0.029153,1.719769
[MO833] Paramount Iteration,6,30,0.029153,1.719841
[MO833] Paramount Iteration,11,30,0.029150,1.717991
[MO833] Paramount Iteration,13,30,0.029147,1.715875
[MO833] Paramount Iteration,15,30,0.029117,1.715855
[MO833] Paramount Iteration,9,30,0.029123,1.719777
[MO833] Paramount Iteration,7,30,0.029119,1.719845
[MO833] Paramount Iteration,2,31,0.029266,1.749235
[MO833] Paramount Iteration,4,31,0.029281,1.749084
[MO833] Paramount Iteration,6,31,0.029232,1.749092
[MO833] Paramount Iteration,10,31,0.029255,1.747311
[MO833] Paramount Iteration,12,31,0.029270,1.745197
[MO833] Paramount Iteration,14,31,0.029246,1.745122
[MO833] Paramount Iteration,8,31,0.029332,1.749122
[MO833] Paramount Iteration,1,31,0.029377,1.748926
[MO833] Paramount Iteration,3,31,0.029295,1.749236
[MO833] Paramount Iteration,5,31,0.029306,1.749086
[MO833] Paramount Iteration,7,31,0.029186,1.749087
[MO833] Paramount Iteration,11,31,0.029290,1.747303
[MO833] Paramount Iteration,13,31,0.029309,1.745198
[MO833] Paramount Iteration,15,31,0.029212,1.745124
[MO833] Paramount Iteration,9,31,0.029297,1.749134
[MO833] Paramount Iteration,0,31,0.029270,1.749054
[MO833] Paramount Iteration,0,32,0.029607,1.778701
[MO833] Paramount Iteration,2,32,0.029833,1.779106
[MO833] Paramount Iteration,1,32,0.029730,1.778724
[MO833] Paramount Iteration,3,32,0.029860,1.779105
[MO833] Paramount Iteration,4,32,0.029836,1.778961
[MO833] Paramount Iteration,6,32,0.029888,1.778997
[MO833] Paramount Iteration,10,32,0.029844,1.777205
[MO833] Paramount Iteration,12,32,0.029860,1.775116
[MO833] Paramount Iteration,14,32,0.029917,1.775060
[MO833] Paramount Iteration,8,32,0.029851,1.778994
[MO833] Paramount Iteration,5,32,0.029863,1.778966
[MO833] Paramount Iteration,7,32,0.029847,1.778989
[MO833] Paramount Iteration,11,32,0.029877,1.777196
[MO833] Paramount Iteration,13,32,0.029901,1.775116
[MO833] Paramount Iteration,15,32,0.029883,1.775060
[MO833] Paramount Iteration,9,32,0.029816,1.779005
[MO833] Paramount Iteration,2,33,0.029363,1.808509
[MO833] Paramount Iteration,6,33,0.029378,1.808390
[MO833] Paramount Iteration,10,33,0.029347,1.806606
[MO833] Paramount Iteration,0,33,0.029413,1.808130
[MO833] Paramount Iteration,3,33,0.029393,1.808511
[MO833] Paramount Iteration,4,33,0.029383,1.808393
[MO833] Paramount Iteration,7,33,0.029334,1.808381
[MO833] Paramount Iteration,11,33,0.029382,1.806597
[MO833] Paramount Iteration,12,33,0.029368,1.804546
[MO833] Paramount Iteration,14,33,0.029381,1.804460
[MO833] Paramount Iteration,8,33,0.029414,1.808428
[MO833] Paramount Iteration,1,33,0.029360,1.808155
[MO833] Paramount Iteration,5,33,0.029417,1.808399
[MO833] Paramount Iteration,13,33,0.029411,1.804547
[MO833] Paramount Iteration,15,33,0.029343,1.804457
[MO833] Paramount Iteration,9,33,0.029379,1.808439
[MO833] Paramount Iteration,0,34,0.029538,1.837691
[MO833] Paramount Iteration,2,34,0.029518,1.838069
[MO833] Paramount Iteration,4,34,0.029459,1.837898
[MO833] Paramount Iteration,6,34,0.029522,1.837927
[MO833] Paramount Iteration,10,34,0.029477,1.836149
[MO833] Paramount Iteration,12,34,0.029424,1.834024
[MO833] Paramount Iteration,14,34,0.029520,1.833994
[MO833] Paramount Iteration,8,34,0.029508,1.837955
[MO833] Paramount Iteration,1,34,0.029448,1.837716
[MO833] Paramount Iteration,3,34,0.029548,1.838070
[MO833] Paramount Iteration,5,34,0.029488,1.837901
[MO833] Paramount Iteration,7,34,0.029480,1.837919
[MO833] Paramount Iteration,11,34,0.029523,1.836140
[MO833] Paramount Iteration,13,34,0.029456,1.834024
[MO833] Paramount Iteration,15,34,0.029487,1.833993
[MO833] Paramount Iteration,9,34,0.029473,1.837966
[MO833] Paramount Iteration,0,35,0.029134,1.867062
[MO833] Paramount Iteration,1,35,0.029331,1.867086
[MO833] Paramount Iteration,2,35,0.029381,1.867489
[MO833] Paramount Iteration,4,35,0.029391,1.867329
[MO833] Paramount Iteration,10,35,0.029389,1.865588
[MO833] Paramount Iteration,12,35,0.029377,1.863464
[MO833] Paramount Iteration,8,35,0.029379,1.867357
[MO833] Paramount Iteration,3,35,0.029410,1.867490
[MO833] Paramount Iteration,5,35,0.029416,1.867331
[MO833] Paramount Iteration,6,35,0.029439,1.867387
[MO833] Paramount Iteration,11,35,0.029422,1.865579
[MO833] Paramount Iteration,13,35,0.029419,1.863464
[MO833] Paramount Iteration,14,35,0.029429,1.863439
[MO833] Paramount Iteration,9,35,0.029343,1.867368
[MO833] Paramount Iteration,7,35,0.029395,1.867381
[MO833] Paramount Iteration,15,35,0.029397,1.863440
[MO833] Paramount Iteration,0,36,0.064700,1.931780
[MO833] Paramount Iteration,2,36,0.064648,1.932179
[MO833] Paramount Iteration,4,36,0.064643,1.932015
[MO833] Paramount Iteration,6,36,0.064622,1.932027
[MO833] Paramount Iteration,10,36,0.064605,1.930244
[MO833] Paramount Iteration,12,36,0.064592,1.928116
[MO833] Paramount Iteration,14,36,0.064590,1.928047
[MO833] Paramount Iteration,8,36,0.064663,1.932041
[MO833] Paramount Iteration,1,36,0.064659,1.931805
[MO833] Paramount Iteration,3,36,0.064677,1.932180
[MO833] Paramount Iteration,5,36,0.064670,1.932018
[MO833] Paramount Iteration,7,36,0.064574,1.932021
[MO833] Paramount Iteration,11,36,0.064637,1.930233
[MO833] Paramount Iteration,13,36,0.064638,1.928122
[MO833] Paramount Iteration,15,36,0.064560,1.928050
[MO833] Paramount Iteration,9,36,0.064629,1.932052
[MO833] Paramount Iteration,0,37,0.028812,1.960821
[MO833] Paramount Iteration,2,37,0.029008,1.961232
[MO833] Paramount Iteration,4,37,0.029008,1.961064
[MO833] Paramount Iteration,8,37,0.029031,1.961094
[MO833] Paramount Iteration,1,37,0.029019,1.960846
[MO833] Paramount Iteration,3,37,0.029036,1.961230
[MO833] Paramount Iteration,5,37,0.029036,1.961069
[MO833] Paramount Iteration,6,37,0.029081,1.961127
[MO833] Paramount Iteration,10,37,0.029041,1.959335
[MO833] Paramount Iteration,12,37,0.029040,1.957212
[MO833] Paramount Iteration,14,37,0.029124,1.957193
[MO833] Paramount Iteration,9,37,0.028996,1.961106
[MO833] Paramount Iteration,7,37,0.029036,1.961119
[MO833] Paramount Iteration,11,37,0.029074,1.959326
[MO833] Paramount Iteration,13,37,0.029078,1.957212
[MO833] Paramount Iteration,15,37,0.029090,1.957193
[MO833] Paramount Iteration,0,38,0.029104,1.989945
[MO833] Paramount Iteration,2,38,0.029107,1.990376
[MO833] Paramount Iteration,4,38,0.029079,1.990197
[MO833] Paramount Iteration,10,38,0.029058,1.988441
[MO833] Paramount Iteration,12,38,0.029046,1.986311
[MO833] Paramount Iteration,8,38,0.029092,1.990206
[MO833] Paramount Iteration,1,38,0.029026,1.989970
[MO833] Paramount Iteration,3,38,0.029138,1.990379
[MO833] Paramount Iteration,5,38,0.029106,1.990199
[MO833] Paramount Iteration,6,38,0.029114,1.990260
[MO833] Paramount Iteration,11,38,0.029089,1.988431
[MO833] Paramount Iteration,13,38,0.029083,1.986311
[MO833] Paramount Iteration,14,38,0.029073,1.986283
[MO833] Paramount Iteration,9,38,0.029058,1.990217
[MO833] Paramount Iteration,7,38,0.029072,1.990254
[MO833] Paramount Iteration,15,38,0.029042,1.986286
[MO833] Paramount Iteration,0,39,0.028926,2.018890
[MO833] Paramount Iteration,2,39,0.028907,2.019321
[MO833] Paramount Iteration,10,39,0.028904,2.017395
[MO833] Paramount Iteration,12,39,0.028905,2.015272
[MO833] Paramount Iteration,8,39,0.028934,2.019161
[MO833] Paramount Iteration,1,39,0.028874,2.018915
[MO833] Paramount Iteration,3,39,0.028936,2.019322
[MO833] Paramount Iteration,4,39,0.028932,2.019169
[MO833] Paramount Iteration,6,39,0.028935,2.019212
[MO833] Paramount Iteration,11,39,0.028935,2.017386
[MO833] Paramount Iteration,13,39,0.028948,2.015276
[MO833] Paramount Iteration,14,39,0.028923,2.015228
[MO833] Paramount Iteration,9,39,0.028898,2.019172
[MO833] Paramount Iteration,5,39,0.028958,2.019171
[MO833] Paramount Iteration,7,39,0.028881,2.019206
[MO833] Paramount Iteration,15,39,0.028881,2.015231
[MO833] Paramount Iteration,2,40,0.028990,2.048349
[MO833] Paramount Iteration,4,40,0.028983,2.048193
[MO833] Paramount Iteration,10,40,0.028981,2.046423
[MO833] Paramount Iteration,12,40,0.028975,2.044303
[MO833] Paramount Iteration,14,40,0.029025,2.044274
[MO833] Paramount Iteration,8,40,0.029049,2.048229
[MO833] Paramount Iteration,0,40,0.029066,2.047974
[MO833] Paramount Iteration,3,40,0.029020,2.048351
[MO833] Paramount Iteration,5,40,0.029009,2.048196
[MO833] Paramount Iteration,6,40,0.029034,2.048261
[MO833] Paramount Iteration,11,40,0.029015,2.046416
[MO833] Paramount Iteration,13,40,0.029015,2.044305
[MO833] Paramount Iteration,15,40,0.028993,2.044277
[MO833] Paramount Iteration,9,40,0.029008,2.048236
[MO833] Paramount Iteration,1,40,0.029025,2.047999
[MO833] Paramount Iteration,7,40,0.028993,2.048255
[MO833] Paramount Iteration,0,41,0.028970,2.077158
[MO833] Paramount Iteration,2,41,0.029193,2.077580
[MO833] Paramount Iteration,4,41,0.029172,2.077416
[MO833] Paramount Iteration,10,41,0.029173,2.075648
[MO833] Paramount Iteration,12,41,0.029158,2.073523
[MO833] Paramount Iteration,14,41,0.029193,2.073491
[MO833] Paramount Iteration,8,41,0.029182,2.077428
[MO833] Paramount Iteration,1,41,0.029093,2.077183
[MO833] Paramount Iteration,3,41,0.029222,2.077581
[MO833] Paramount Iteration,5,41,0.029197,2.077418
[MO833] Paramount Iteration,6,41,0.029194,2.077474
[MO833] Paramount Iteration,11,41,0.029205,2.075639
[MO833] Paramount Iteration,13,41,0.029202,2.073526
[MO833] Paramount Iteration,15,41,0.029148,2.073496
[MO833] Paramount Iteration,9,41,0.029147,2.077439
[MO833] Paramount Iteration,7,41,0.029151,2.077469
[MO833] Paramount Iteration,0,42,0.029522,2.106923
[MO833] Paramount Iteration,2,42,0.029737,2.107355
[MO833] Paramount Iteration,4,42,0.029739,2.107200
[MO833] Paramount Iteration,10,42,0.029724,2.105421
[MO833] Paramount Iteration,12,42,0.029707,2.103291
[MO833] Paramount Iteration,14,42,0.029754,2.103266
[MO833] Paramount Iteration,8,42,0.029736,2.107186
[MO833] Paramount Iteration,1,42,0.029746,2.106949
[MO833] Paramount Iteration,3,42,0.029767,2.107357
[MO833] Paramount Iteration,5,42,0.029766,2.107202
[MO833] Paramount Iteration,6,42,0.029757,2.107252
[MO833] Paramount Iteration,11,42,0.029751,2.105409
[MO833] Paramount Iteration,13,42,0.029751,2.103294
[MO833] Paramount Iteration,15,42,0.029721,2.103266
[MO833] Paramount Iteration,9,42,0.029703,2.107197
[MO833] Paramount Iteration,7,42,0.029706,2.107246
[MO833] Paramount Iteration,2,43,0.029683,2.137080
[MO833] Paramount Iteration,4,43,0.029686,2.136927
[MO833] Paramount Iteration,6,43,0.029665,2.136936
[MO833] Paramount Iteration,10,43,0.029676,2.135143
[MO833] Paramount Iteration,12,43,0.029690,2.133039
[MO833] Paramount Iteration,14,43,0.029671,2.132956
[MO833] Paramount Iteration,3,43,0.029715,2.137084
[MO833] Paramount Iteration,5,43,0.029712,2.136929
[MO833] Paramount Iteration,7,43,0.029616,2.136930
[MO833] Paramount Iteration,11,43,0.029705,2.135131
[MO833] Paramount Iteration,13,43,0.029732,2.133041
[MO833] Paramount Iteration,15,43,0.029636,2.132955
[MO833] Paramount Iteration,8,43,0.029759,2.136965
[MO833] Paramount Iteration,9,43,0.029721,2.136974
[MO833] Paramount Iteration,1,43,0.029762,2.136732
[MO833] Paramount Iteration,0,43,0.029513,2.136706
[MO833] Paramount Iteration,0,44,0.028966,2.165944
[MO833] Paramount Iteration,8,44,0.029238,2.166224
[MO833] Paramount Iteration,1,44,0.029188,2.165970
[MO833] Paramount Iteration,2,44,0.029261,2.166380
[MO833] Paramount Iteration,4,44,0.029247,2.166212
[MO833] Paramount Iteration,6,44,0.029320,2.166274
[MO833] Paramount Iteration,10,44,0.029265,2.164458
[MO833] Paramount Iteration,12,44,0.029231,2.162331
[MO833] Paramount Iteration,14,44,0.029338,2.162315
[MO833] Paramount Iteration,9,44,0.029203,2.166235
[MO833] Paramount Iteration,3,44,0.029290,2.166381
[MO833] Paramount Iteration,5,44,0.029272,2.166214
[MO833] Paramount Iteration,7,44,0.029248,2.166268
[MO833] Paramount Iteration,11,44,0.029309,2.164462
[MO833] Paramount Iteration,13,44,0.029275,2.162334
[MO833] Paramount Iteration,15,44,0.029304,2.162316
[MO833] Paramount Iteration,0,45,0.064902,2.231098
[MO833] Paramount Iteration,2,45,0.065088,2.231509
[MO833] Paramount Iteration,4,45,0.065115,2.231363
[MO833] Paramount Iteration,6,45,0.065106,2.231401
[MO833] Paramount Iteration,10,45,0.065079,2.229587
[MO833] Paramount Iteration,12,45,0.065088,2.227476
[MO833] Paramount Iteration,14,45,0.065106,2.227443
[MO833] Paramount Iteration,8,45,0.065132,2.231380
[MO833] Paramount Iteration,1,45,0.065138,2.231123
[MO833] Paramount Iteration,3,45,0.065119,2.231512
[MO833] Paramount Iteration,5,45,0.065138,2.231365
[MO833] Paramount Iteration,7,45,0.065053,2.231395
[MO833] Paramount Iteration,11,45,0.065110,2.229579
[MO833] Paramount Iteration,13,45,0.065128,2.227477
[MO833] Paramount Iteration,15,45,0.065071,2.227444
[MO833] Paramount Iteration,9,45,0.065082,2.231391
[MO833] Paramount Iteration,0,46,0.029128,2.260466
[MO833] Paramount Iteration,2,46,0.029338,2.260894
[MO833] Paramount Iteration,4,46,0.029292,2.260699
[MO833] Paramount Iteration,6,46,0.029337,2.260759
[MO833] Paramount Iteration,10,46,0.029321,2.258961
[MO833] Paramount Iteration,12,46,0.029313,2.256847
[MO833] Paramount Iteration,1,46,0.029347,2.260489
[MO833] Paramount Iteration,3,46,0.029370,2.260895
[MO833] Paramount Iteration,5,46,0.029319,2.260702
[MO833] Paramount Iteration,7,46,0.029295,2.260753
[MO833] Paramount Iteration,11,46,0.029354,2.258952
[MO833] Paramount Iteration,13,46,0.029352,2.256847
[MO833] Paramount Iteration,14,46,0.029347,2.256809
[MO833] Paramount Iteration,8,46,0.029367,2.260766
[MO833] Paramount Iteration,15,46,0.029313,2.256809
[MO833] Paramount Iteration,9,46,0.029335,2.260778
[MO833] Paramount Iteration,2,47,0.029144,2.290076
[MO833] Paramount Iteration,4,47,0.029193,2.289931
[MO833] Paramount Iteration,6,47,0.029144,2.289923
[MO833] Paramount Iteration,10,47,0.029130,2.288140
[MO833] Paramount Iteration,12,47,0.029133,2.286037
[MO833] Paramount Iteration,14,47,0.029128,2.285954
[MO833] Paramount Iteration,3,47,0.029173,2.290077
[MO833] Paramount Iteration,5,47,0.029218,2.289933
[MO833] Paramount Iteration,7,47,0.029101,2.289917
[MO833] Paramount Iteration,11,47,0.029160,2.288129
[MO833] Paramount Iteration,13,47,0.029172,2.286037
[MO833] Paramount Iteration,15,47,0.029093,2.285953
[MO833] Paramount Iteration,8,47,0.029185,2.289974
[MO833] Paramount Iteration,9,47,0.029145,2.289984
[MO833] Paramount Iteration,0,47,0.029199,2.289943
[MO833] Paramount Iteration,1,47,0.029465,2.289975
[MO833] Paramount Iteration,0,48,0.029239,2.319255
[MO833] Paramount Iteration,2,48,0.029561,2.319678
[MO833] Paramount Iteration,4,48,0.029531,2.319501
[MO833] Paramount Iteration,8,48,0.029552,2.319545
[MO833] Paramount Iteration,1,48,0.029297,2.319280
[MO833] Paramount Iteration,3,48,0.029584,2.319673
[MO833] Paramount Iteration,5,48,0.029561,2.319507
[MO833] Paramount Iteration,6,48,0.029624,2.319568
[MO833] Paramount Iteration,10,48,0.029581,2.317771
[MO833] Paramount Iteration,12,48,0.029577,2.315677
[MO833] Paramount Iteration,14,48,0.029658,2.315629
[MO833] Paramount Iteration,9,48,0.029516,2.319556
[MO833] Paramount Iteration,7,48,0.029580,2.319558
[MO833] Paramount Iteration,11,48,0.029613,2.317762
[MO833] Paramount Iteration,13,48,0.029619,2.315677
[MO833] Paramount Iteration,15,48,0.029625,2.315629
[MO833] Paramount Iteration,0,49,0.028939,2.348449
[MO833] Paramount Iteration,2,49,0.029130,2.348843
[MO833] Paramount Iteration,4,49,0.029136,2.348682
[MO833] Paramount Iteration,6,49,0.029111,2.348694
[MO833] Paramount Iteration,10,49,0.029085,2.346907
[MO833] Paramount Iteration,12,49,0.029066,2.344805
[MO833] Paramount Iteration,14,49,0.029072,2.344722
[MO833] Paramount Iteration,8,49,0.029161,2.348724
[MO833] Paramount Iteration,1,49,0.029174,2.348474
[MO833] Paramount Iteration,3,49,0.029158,2.348844
[MO833] Paramount Iteration,5,49,0.029163,2.348685
[MO833] Paramount Iteration,7,49,0.029066,2.348688
[MO833] Paramount Iteration,11,49,0.029115,2.346897
[MO833] Paramount Iteration,13,49,0.029109,2.344807
[MO833] Paramount Iteration,15,49,0.029039,2.344722
[MO833] Paramount Iteration,9,49,0.029127,2.348735
---------------- Step       50 ----- CPU =      1.6370 (sec) ----------------
TotEng   =    -25330.0317 KinEng   =     21501.0005 Temp     =       299.8229 
PotEng   =    -46831.0321 E_bond   =      2471.7035 E_angle  =     10836.5102 
E_dihed  =      5239.6319 E_impro  =       227.1218 E_vdwl   =     -1993.2873 
E_coul   =    206797.6802 E_long   =   -270410.3926 Press    =       237.6571 
Volume   =    308031.6762 
[MO833] Paramount Iteration,2,50,0.039240,2.388118
[MO833] Paramount Iteration,4,50,0.039211,2.387942
[MO833] Paramount Iteration,10,50,0.039225,2.386180
[MO833] Paramount Iteration,12,50,0.039204,2.384066
[MO833] Paramount Iteration,8,50,0.039219,2.387965
[MO833] Paramount Iteration,1,50,0.039202,2.387712
[MO833] Paramount Iteration,3,50,0.039270,2.388121
[MO833] Paramount Iteration,5,50,0.039241,2.387945
[MO833] Paramount Iteration,6,50,0.039295,2.388008
[MO833] Paramount Iteration,11,50,0.039258,2.386172
[MO833] Paramount Iteration,13,50,0.039247,2.384068
[MO833] Paramount Iteration,14,50,0.039294,2.384034
[MO833] Paramount Iteration,9,50,0.039184,2.387976
[MO833] Paramount Iteration,7,50,0.039253,2.388002
[MO833] Paramount Iteration,15,50,0.039265,2.384039
[MO833] Paramount Iteration,0,50,0.039266,2.387953
[MO833] Paramount Iteration,0,51,0.028977,2.416966
[MO833] Paramount Iteration,2,51,0.029207,2.417362
[MO833] Paramount Iteration,4,51,0.029213,2.417196
[MO833] Paramount Iteration,6,51,0.029232,2.417252
[MO833] Paramount Iteration,10,51,0.029196,2.415422
[MO833] Paramount Iteration,12,51,0.029176,2.413294
[MO833] Paramount Iteration,14,51,0.029210,2.413263
[MO833] Paramount Iteration,8,51,0.029243,2.417222
[MO833] Paramount Iteration,1,51,0.029258,2.416991
[MO833] Paramount Iteration,3,51,0.029237,2.417364
[MO833] Paramount Iteration,5,51,0.029242,2.417199
[MO833] Paramount Iteration,7,51,0.029181,2.417246
[MO833] Paramount Iteration,11,51,0.029228,2.415412
[MO833] Paramount Iteration,13,51,0.029216,2.413294
[MO833] Paramount Iteration,15,51,0.029180,2.413268
[MO833] Paramount Iteration,9,51,0.029207,2.417233
[MO833] Paramount Iteration,0,52,0.029254,2.446467
[MO833] Paramount Iteration,2,52,0.029502,2.446905
[MO833] Paramount Iteration,4,52,0.029486,2.446726
[MO833] Paramount Iteration,10,52,0.029500,2.444978
[MO833] Paramount Iteration,12,52,0.029486,2.442840
[MO833] Paramount Iteration,8,52,0.029485,2.446733
[MO833] Paramount Iteration,1,52,0.029477,2.446492
[MO833] Paramount Iteration,3,52,0.029531,2.446906
[MO833] Paramount Iteration,5,52,0.029514,2.446728
[MO833] Paramount Iteration,6,52,0.029523,2.446796
[MO833] Paramount Iteration,11,52,0.029536,2.444969
[MO833] Paramount Iteration,13,52,0.029529,2.442842
[MO833] Paramount Iteration,14,52,0.029570,2.442854
[MO833] Paramount Iteration,9,52,0.029451,2.446744
[MO833] Paramount Iteration,7,52,0.029473,2.446788
[MO833] Paramount Iteration,15,52,0.029538,2.442854
[MO833] Paramount Iteration,2,53,0.029276,2.476219
[MO833] Paramount Iteration,4,53,0.029302,2.476064
[MO833] Paramount Iteration,6,53,0.029287,2.476100
[MO833] Paramount Iteration,10,53,0.029278,2.474312
[MO833] Paramount Iteration,12,53,0.029296,2.472197
[MO833] Paramount Iteration,8,53,0.029349,2.476103
[MO833] Paramount Iteration,3,53,0.029303,2.476218
[MO833] Paramount Iteration,5,53,0.029326,2.476066
[MO833] Paramount Iteration,7,53,0.029231,2.476091
[MO833] Paramount Iteration,11,53,0.029314,2.474303
[MO833] Paramount Iteration,13,53,0.029339,2.472199
[MO833] Paramount Iteration,14,53,0.029285,2.472158
[MO833] Paramount Iteration,9,53,0.029313,2.476114
[MO833] Paramount Iteration,15,53,0.029241,2.472158
[MO833] Paramount Iteration,0,53,0.029107,2.475849
[MO833] Paramount Iteration,1,53,0.029384,2.475898
[MO833] Paramount Iteration,0,54,0.065084,2.541197
[MO833] Paramount Iteration,2,54,0.065352,2.541610
[MO833] Paramount Iteration,4,54,0.065345,2.541445
[MO833] Paramount Iteration,10,54,0.065332,2.539699
[MO833] Paramount Iteration,8,54,0.065358,2.541483
[MO833] Paramount Iteration,1,54,0.065317,2.541222
[MO833] Paramount Iteration,3,54,0.065379,2.541609
[MO833] Paramount Iteration,5,54,0.065369,2.541447
[MO833] Paramount Iteration,6,54,0.065384,2.541498
[MO833] Paramount Iteration,11,54,0.065365,2.539690
[MO833] Paramount Iteration,12,54,0.065339,2.537593
[MO833] Paramount Iteration,14,54,0.065371,2.537547
[MO833] Paramount Iteration,9,54,0.065323,2.541494
[MO833] Paramount Iteration,7,54,0.065342,2.541492
[MO833] Paramount Iteration,13,54,0.065378,2.537593
[MO833] Paramount Iteration,15,54,0.065337,2.537547
[MO833] Paramount Iteration,0,55,0.029234,2.570677
[MO833] Paramount Iteration,2,55,0.029467,2.571119
[MO833] Paramount Iteration,10,55,0.029428,2.569177
[MO833] Paramount Iteration,12,55,0.029412,2.567064
[MO833] Paramount Iteration,8,55,0.029449,2.570956
[MO833] Paramount Iteration,1,55,0.029458,2.570703
[MO833] Paramount Iteration,3,55,0.029498,2.571120
[MO833] Paramount Iteration,4,55,0.029462,2.570960
[MO833] Paramount Iteration,6,55,0.029497,2.571015
[MO833] Paramount Iteration,11,55,0.029460,2.569168
[MO833] Paramount Iteration,13,55,0.029453,2.567066
[MO833] Paramount Iteration,14,55,0.029467,2.567031
[MO833] Paramount Iteration,9,55,0.029413,2.570968
[MO833] Paramount Iteration,5,55,0.029496,2.570963
[MO833] Paramount Iteration,7,55,0.029456,2.571009
[MO833] Paramount Iteration,15,55,0.029439,2.567034
[MO833] Paramount Iteration,0,56,0.029353,2.600289
[MO833] Paramount Iteration,2,56,0.029562,2.600721
[MO833] Paramount Iteration,4,56,0.029546,2.600550
[MO833] Paramount Iteration,10,56,0.029556,2.598789
[MO833] Paramount Iteration,12,56,0.029555,2.596678
[MO833] Paramount Iteration,14,56,0.029590,2.596643
[MO833] Paramount Iteration,8,56,0.029586,2.600566
[MO833] Paramount Iteration,1,56,0.029590,2.600314
[MO833] Paramount Iteration,3,56,0.029593,2.600722
[MO833] Paramount Iteration,5,56,0.029577,2.600554
[MO833] Paramount Iteration,6,56,0.029579,2.600612
[MO833] Paramount Iteration,11,56,0.029591,2.598780
[MO833] Paramount Iteration,13,56,0.029595,2.596678
[MO833] Paramount Iteration,15,56,0.029555,2.596642
[MO833] Paramount Iteration,9,56,0.029550,2.600578
[MO833] Paramount Iteration,7,56,0.029546,2.600606
[MO833] Paramount Iteration,0,57,0.029148,2.629699
[MO833] Paramount Iteration,2,57,0.029330,2.630091
[MO833] Paramount Iteration,4,57,0.029332,2.629925
[MO833] Paramount Iteration,6,57,0.029300,2.629932
[MO833] Paramount Iteration,10,57,0.029333,2.628169
[MO833] Paramount Iteration,12,57,0.029310,2.626044
[MO833] Paramount Iteration,14,57,0.029315,2.625977
[MO833] Paramount Iteration,8,57,0.029399,2.629989
[MO833] Paramount Iteration,3,57,0.029359,2.630092
[MO833] Paramount Iteration,5,57,0.029360,2.629927
[MO833] Paramount Iteration,7,57,0.029259,2.629926
[MO833] Paramount Iteration,11,57,0.029364,2.628160
[MO833] Paramount Iteration,13,57,0.029352,2.626048
[MO833] Paramount Iteration,15,57,0.029282,2.625978
[MO833] Paramount Iteration,9,57,0.029363,2.630000
[MO833] Paramount Iteration,1,57,0.029384,2.629722
[MO833] Paramount Iteration,0,58,0.028953,2.658959
[MO833] Paramount Iteration,2,58,0.029253,2.659385
[MO833] Paramount Iteration,4,58,0.029230,2.659198
[MO833] Paramount Iteration,1,58,0.029227,2.658981
[MO833] Paramount Iteration,3,58,0.029283,2.659387
[MO833] Paramount Iteration,5,58,0.029258,2.659201
[MO833] Paramount Iteration,6,58,0.029313,2.659265
[MO833] Paramount Iteration,10,58,0.029245,2.657467
[MO833] Paramount Iteration,12,58,0.029245,2.655344
[MO833] Paramount Iteration,14,58,0.029332,2.655328
[MO833] Paramount Iteration,8,58,0.029250,2.659263
[MO833] Paramount Iteration,7,58,0.029269,2.659255
[MO833] Paramount Iteration,11,58,0.029278,2.657458
[MO833] Paramount Iteration,13,58,0.029285,2.655345
[MO833] Paramount Iteration,15,58,0.029299,2.655328
[MO833] Paramount Iteration,9,58,0.029206,2.659274
[MO833] Paramount Iteration,1,59,0.029378,2.688381
[MO833] Paramount Iteration,2,59,0.029324,2.688751
[MO833] Paramount Iteration,4,59,0.029340,2.688574
[MO833] Paramount Iteration,6,59,0.029311,2.688591
[MO833] Paramount Iteration,10,59,0.029303,2.686819
[MO833] Paramount Iteration,12,59,0.029298,2.684698
[MO833] Paramount Iteration,14,59,0.029278,2.684623
[MO833] Paramount Iteration,8,59,0.029345,2.688629
[MO833] Paramount Iteration,3,59,0.029354,2.688752
[MO833] Paramount Iteration,5,59,0.029365,2.688577
[MO833] Paramount Iteration,7,59,0.029263,2.688585
[MO833] Paramount Iteration,11,59,0.029334,2.686809
[MO833] Paramount Iteration,13,59,0.029338,2.684700
[MO833] Paramount Iteration,15,59,0.029246,2.684623
[MO833] Paramount Iteration,9,59,0.029310,2.688640
[MO833] Paramount Iteration,0,59,0.029160,2.688356
[MO833] Paramount Iteration,0,60,0.029321,2.717937
[MO833] Paramount Iteration,2,60,0.029585,2.718372
[MO833] Paramount Iteration,4,60,0.029588,2.718198
[MO833] Paramount Iteration,10,60,0.029562,2.716428
[MO833] Paramount Iteration,12,60,0.029568,2.714318
[MO833] Paramount Iteration,1,60,0.029539,2.717962
[MO833] Paramount Iteration,3,60,0.029614,2.718374
[MO833] Paramount Iteration,5,60,0.029612,2.718200
[MO833] Paramount Iteration,6,60,0.029660,2.718270
[MO833] Paramount Iteration,11,60,0.029594,2.716419
[MO833] Paramount Iteration,13,60,0.029608,2.714321
[MO833] Paramount Iteration,14,60,0.029639,2.714279
[MO833] Paramount Iteration,8,60,0.029570,2.718222
[MO833] Paramount Iteration,7,60,0.029622,2.718265
[MO833] Paramount Iteration,15,60,0.029611,2.714285
[MO833] Paramount Iteration,9,60,0.029534,2.718233
[MO833] Paramount Iteration,0,61,0.029063,2.747247
[MO833] Paramount Iteration,2,61,0.029279,2.747689
[MO833] Paramount Iteration,4,61,0.029278,2.747515
[MO833] Paramount Iteration,10,61,0.029262,2.745743
[MO833] Paramount Iteration,12,61,0.029243,2.743617
[MO833] Paramount Iteration,14,61,0.029290,2.743590
[MO833] Paramount Iteration,8,61,0.029253,2.747516
[MO833] Paramount Iteration,1,61,0.029292,2.747272
[MO833] Paramount Iteration,3,61,0.029308,2.747690
[MO833] Paramount Iteration,5,61,0.029303,2.747517
[MO833] Paramount Iteration,6,61,0.029313,2.747603
[MO833] Paramount Iteration,11,61,0.029290,2.745730
[MO833] Paramount Iteration,13,61,0.029286,2.743622
[MO833] Paramount Iteration,15,61,0.029263,2.743598
[MO833] Paramount Iteration,9,61,0.029185,2.747527
[MO833] Paramount Iteration,7,61,0.029274,2.747600
[MO833] Paramount Iteration,0,62,0.029152,2.776672
[MO833] Paramount Iteration,2,62,0.029382,2.777108
[MO833] Paramount Iteration,4,62,0.029377,2.776932
[MO833] Paramount Iteration,10,62,0.029385,2.775177
[MO833] Paramount Iteration,12,62,0.029390,2.773055
[MO833] Paramount Iteration,14,62,0.029411,2.773024
[MO833] Paramount Iteration,8,62,0.029420,2.776954
[MO833] Paramount Iteration,1,62,0.029407,2.776698
[MO833] Paramount Iteration,3,62,0.029410,2.777109
[MO833] Paramount Iteration,5,62,0.029404,2.776934
[MO833] Paramount Iteration,6,62,0.029383,2.777003
[MO833] Paramount Iteration,11,62,0.029417,2.775168
[MO833] Paramount Iteration,13,62,0.029421,2.773055
[MO833] Paramount Iteration,15,62,0.029377,2.773024
[MO833] Paramount Iteration,9,62,0.029387,2.776965
[MO833] Paramount Iteration,7,62,0.029335,2.776998
[MO833] Paramount Iteration,0,63,0.029241,2.806168
[MO833] Paramount Iteration,1,63,0.029473,2.806190
[MO833] Paramount Iteration,2,63,0.029460,2.806607
[MO833] Paramount Iteration,4,63,0.029451,2.806423
[MO833] Paramount Iteration,6,63,0.029468,2.806489
[MO833] Paramount Iteration,10,63,0.029476,2.804700
[MO833] Paramount Iteration,12,63,0.029460,2.802572
[MO833] Paramount Iteration,14,63,0.029503,2.802543
[MO833] Paramount Iteration,8,63,0.029498,2.806471
[MO833] Paramount Iteration,3,63,0.029486,2.806605
[MO833] Paramount Iteration,5,63,0.029480,2.806428
[MO833] Paramount Iteration,7,63,0.029425,2.806480
[MO833] Paramount Iteration,11,63,0.029508,2.804691
[MO833] Paramount Iteration,13,63,0.029499,2.802572
[MO833] Paramount Iteration,15,63,0.029470,2.802543
[MO833] Paramount Iteration,9,63,0.029463,2.806482
[MO833] Paramount Iteration,0,64,0.065437,2.871849
[MO833] Paramount Iteration,2,64,0.065641,2.872287
[MO833] Paramount Iteration,10,64,0.065585,2.870340
[MO833] Paramount Iteration,12,64,0.065592,2.868216
[MO833] Paramount Iteration,8,64,0.065637,2.872130
[MO833] Paramount Iteration,1,64,0.065662,2.871874
[MO833] Paramount Iteration,3,64,0.065671,2.872289
[MO833] Paramount Iteration,4,64,0.065641,2.872105
[MO833] Paramount Iteration,6,64,0.065682,2.872186
[MO833] Paramount Iteration,11,64,0.065619,2.870331
[MO833] Paramount Iteration,13,64,0.065633,2.868218
[MO833] Paramount Iteration,14,64,0.065630,2.868192
[MO833] Paramount Iteration,9,64,0.065603,2.872141
[MO833] Paramount Iteration,5,64,0.065667,2.872109
[MO833] Paramount Iteration,7,64,0.065646,2.872181
[MO833] Paramount Iteration,15,64,0.065598,2.868192
[MO833] Paramount Iteration,0,65,0.029342,2.901444
[MO833] Paramount Iteration,2,65,0.029562,2.901894
[MO833] Paramount Iteration,4,65,0.029553,2.901712
[MO833] Paramount Iteration,10,65,0.029550,2.899946
[MO833] Paramount Iteration,12,65,0.029550,2.897824
[MO833] Paramount Iteration,8,65,0.029576,2.901725
[MO833] Paramount Iteration,1,65,0.029573,2.901470
[MO833] Paramount Iteration,3,65,0.029594,2.901896
[MO833] Paramount Iteration,5,65,0.029579,2.901714
[MO833] Paramount Iteration,11,65,0.029585,2.899937
[MO833] Paramount Iteration,13,65,0.029592,2.897826
[MO833] Paramount Iteration,14,65,0.029609,2.897824
[MO833] Paramount Iteration,9,65,0.029546,2.901740
[MO833] Paramount Iteration,6,65,0.029617,2.901823
[MO833] Paramount Iteration,15,65,0.029578,2.897827
[MO833] Paramount Iteration,7,65,0.029574,2.901817
[MO833] Paramount Iteration,0,66,0.029449,2.931147
[MO833] Paramount Iteration,2,66,0.029655,2.931587
[MO833] Paramount Iteration,4,66,0.029659,2.931409
[MO833] Paramount Iteration,6,66,0.029641,2.931483
[MO833] Paramount Iteration,10,66,0.029638,2.929635
[MO833] Paramount Iteration,12,66,0.029637,2.927515
[MO833] Paramount Iteration,14,66,0.029642,2.927488
[MO833] Paramount Iteration,8,66,0.029661,2.931409
[MO833] Paramount Iteration,1,66,0.029683,2.931172
[MO833] Paramount Iteration,3,66,0.029685,2.931589
[MO833] Paramount Iteration,5,66,0.029685,2.931412
[MO833] Paramount Iteration,7,66,0.029599,2.931477
[MO833] Paramount Iteration,11,66,0.029670,2.929626
[MO833] Paramount Iteration,13,66,0.029679,2.927519
[MO833] Paramount Iteration,15,66,0.029580,2.927493
[MO833] Paramount Iteration,9,66,0.029627,2.931422
[MO833] Paramount Iteration,2,67,0.029635,2.961265
[MO833] Paramount Iteration,4,67,0.029638,2.961088
[MO833] Paramount Iteration,6,67,0.029612,2.961113
[MO833] Paramount Iteration,10,67,0.029630,2.959316
[MO833] Paramount Iteration,12,67,0.029639,2.957210
[MO833] Paramount Iteration,14,67,0.029616,2.957128
[MO833] Paramount Iteration,8,67,0.029706,2.961141
[MO833] Paramount Iteration,3,67,0.029670,2.961271
[MO833] Paramount Iteration,5,67,0.029664,2.961091
[MO833] Paramount Iteration,7,67,0.029573,2.961107
[MO833] Paramount Iteration,11,67,0.029660,2.959304
[MO833] Paramount Iteration,13,67,0.029677,2.957211
[MO833] Paramount Iteration,15,67,0.029584,2.957130
[MO833] Paramount Iteration,9,67,0.029671,2.961151
[MO833] Paramount Iteration,1,67,0.029686,2.960895
[MO833] Paramount Iteration,0,67,0.029419,2.960870
[MO833] Paramount Iteration,0,68,0.029525,2.990658
[MO833] Paramount Iteration,2,68,0.029798,2.991102
[MO833] Paramount Iteration,4,68,0.029792,2.990915
[MO833] Paramount Iteration,8,68,0.029802,2.990961
[MO833] Paramount Iteration,1,68,0.029751,2.990680
[MO833] Paramount Iteration,3,68,0.029826,2.991102
[MO833] Paramount Iteration,5,68,0.029815,2.990917
[MO833] Paramount Iteration,6,68,0.029866,2.990995
[MO833] Paramount Iteration,10,68,0.029826,2.989195
[MO833] Paramount Iteration,12,68,0.029812,2.987077
[MO833] Paramount Iteration,14,68,0.029908,2.987057
[MO833] Paramount Iteration,9,68,0.029766,2.990972
[MO833] Paramount Iteration,7,68,0.029832,2.990990
[MO833] Paramount Iteration,11,68,0.029870,2.989198
[MO833] Paramount Iteration,13,68,0.029853,2.987080
[MO833] Paramount Iteration,15,68,0.029871,2.987057
[MO833] Paramount Iteration,2,69,0.029663,3.020805
[MO833] Paramount Iteration,4,69,0.029675,3.020627
[MO833] Paramount Iteration,6,69,0.029676,3.020685
[MO833] Paramount Iteration,10,69,0.029615,3.018863
[MO833] Paramount Iteration,12,69,0.029610,3.016745
[MO833] Paramount Iteration,14,69,0.029613,3.016691
[MO833] Paramount Iteration,8,69,0.029708,3.020687
[MO833] Paramount Iteration,3,69,0.029691,3.020806
[MO833] Paramount Iteration,5,69,0.029697,3.020629
[MO833] Paramount Iteration,7,69,0.029630,3.020679
[MO833] Paramount Iteration,11,69,0.029649,3.018854
[MO833] Paramount Iteration,13,69,0.029649,3.016745
[MO833] Paramount Iteration,15,69,0.029583,3.016696
[MO833] Paramount Iteration,9,69,0.029670,3.020695
[MO833] Paramount Iteration,1,69,0.029742,3.020445
[MO833] Paramount Iteration,0,69,0.029487,3.020420
[MO833] Paramount Iteration,2,70,0.029787,3.050629
[MO833] Paramount Iteration,4,70,0.029782,3.050453
[MO833] Paramount Iteration,10,70,0.029773,3.048681
[MO833] Paramount Iteration,12,70,0.029758,3.046559
[MO833] Paramount Iteration,14,70,0.029819,3.046534
[MO833] Paramount Iteration,8,70,0.029765,3.050472
[MO833] Paramount Iteration,0,70,0.029510,3.050206
[MO833] Paramount Iteration,3,70,0.029815,3.050630
[MO833] Paramount Iteration,5,70,0.029808,3.050454
[MO833] Paramount Iteration,6,70,0.029830,3.050528
[MO833] Paramount Iteration,11,70,0.029804,3.048672
[MO833] Paramount Iteration,13,70,0.029801,3.046562
[MO833] Paramount Iteration,15,70,0.029785,3.046539
[MO833] Paramount Iteration,9,70,0.029728,3.050483
[MO833] Paramount Iteration,1,70,0.029738,3.050232
[MO833] Paramount Iteration,7,70,0.029795,3.050524
[MO833] Paramount Iteration,0,71,0.029811,3.080037
[MO833] Paramount Iteration,1,71,0.029730,3.080062
[MO833] Paramount Iteration,2,71,0.029819,3.080490
[MO833] Paramount Iteration,4,71,0.029799,3.080292
[MO833] Paramount Iteration,6,71,0.029823,3.080367
[MO833] Paramount Iteration,10,71,0.029837,3.078569
[MO833] Paramount Iteration,12,71,0.029820,3.076438
[MO833] Paramount Iteration,14,71,0.029873,3.076430
[MO833] Paramount Iteration,8,71,0.029842,3.080336
[MO833] Paramount Iteration,3,71,0.029847,3.080490
[MO833] Paramount Iteration,5,71,0.029826,3.080294
[MO833] Paramount Iteration,7,71,0.029785,3.080362
[MO833] Paramount Iteration,11,71,0.029884,3.078574
[MO833] Paramount Iteration,13,71,0.029858,3.076438
[MO833] Paramount Iteration,15,71,0.029838,3.076430
[MO833] Paramount Iteration,9,71,0.029804,3.080347
[MO833] Paramount Iteration,2,72,0.029673,3.110201
[MO833] Paramount Iteration,4,72,0.029682,3.110015
[MO833] Paramount Iteration,6,72,0.029704,3.110088
[MO833] Paramount Iteration,10,72,0.029670,3.108291
[MO833] Paramount Iteration,12,72,0.029679,3.106176
[MO833] Paramount Iteration,8,72,0.029704,3.110075
[MO833] Paramount Iteration,0,72,0.029712,3.109769
[MO833] Paramount Iteration,3,72,0.029698,3.110199
[MO833] Paramount Iteration,5,72,0.029707,3.110017
[MO833] Paramount Iteration,7,72,0.029661,3.110084
[MO833] Paramount Iteration,11,72,0.029702,3.108282
[MO833] Paramount Iteration,13,72,0.029719,3.106176
[MO833] Paramount Iteration,14,72,0.029699,3.106146
[MO833] Paramount Iteration,9,72,0.029669,3.110088
[MO833] Paramount Iteration,1,72,0.029650,3.109788
[MO833] Paramount Iteration,15,72,0.029666,3.106146
[MO833] Paramount Iteration,0,73,0.065868,3.175656
[MO833] Paramount Iteration,2,73,0.065844,3.176084
[MO833] Paramount Iteration,1,73,0.065755,3.175679
[MO833] Paramount Iteration,3,73,0.065870,3.176082
[MO833] Paramount Iteration,4,73,0.065848,3.175904
[MO833] Paramount Iteration,6,73,0.065856,3.175963
[MO833] Paramount Iteration,10,73,0.065820,3.174158
[MO833] Paramount Iteration,12,73,0.065824,3.172057
[MO833] Paramount Iteration,14,73,0.065846,3.172012
[MO833] Paramount Iteration,8,73,0.065892,3.175986
[MO833] Paramount Iteration,5,73,0.065876,3.175908
[MO833] Paramount Iteration,7,73,0.065811,3.175954
[MO833] Paramount Iteration,11,73,0.065851,3.174149
[MO833] Paramount Iteration,13,73,0.065863,3.172057
[MO833] Paramount Iteration,15,73,0.065813,3.172012
[MO833] Paramount Iteration,9,73,0.065859,3.175997
[MO833] Paramount Iteration,0,74,0.029952,3.205626
[MO833] Paramount Iteration,2,74,0.029948,3.206074
[MO833] Paramount Iteration,4,74,0.029942,3.205891
[MO833] Paramount Iteration,10,74,0.029907,3.204119
[MO833] Paramount Iteration,12,74,0.029877,3.201997
[MO833] Paramount Iteration,8,74,0.029899,3.205908
[MO833] Paramount Iteration,1,74,0.029895,3.205651
[MO833] Paramount Iteration,3,74,0.029979,3.206075
[MO833] Paramount Iteration,5,74,0.029973,3.205895
[MO833] Paramount Iteration,6,74,0.029981,3.205959
[MO833] Paramount Iteration,11,74,0.029942,3.204110
[MO833] Paramount Iteration,13,74,0.029924,3.202002
[MO833] Paramount Iteration,14,74,0.029935,3.201966
[MO833] Paramount Iteration,9,74,0.029864,3.205919
[MO833] Paramount Iteration,7,74,0.029947,3.205956
[MO833] Paramount Iteration,15,74,0.029903,3.201969
[MO833] Paramount Iteration,0,75,0.029949,3.235597
[MO833] Paramount Iteration,2,75,0.029911,3.236027
[MO833] Paramount Iteration,1,75,0.029885,3.235622
[MO833] Paramount Iteration,3,75,0.029939,3.236027
[MO833] Paramount Iteration,4,75,0.029917,3.235854
[MO833] Paramount Iteration,6,75,0.029941,3.235919
[MO833] Paramount Iteration,10,75,0.029948,3.234118
[MO833] Paramount Iteration,12,75,0.029954,3.232015
[MO833] Paramount Iteration,14,75,0.029985,3.231975
[MO833] Paramount Iteration,8,75,0.029981,3.235912
[MO833] Paramount Iteration,5,75,0.029952,3.235862
[MO833] Paramount Iteration,7,75,0.029899,3.235909
[MO833] Paramount Iteration,11,75,0.029981,3.234109
[MO833] Paramount Iteration,13,75,0.029995,3.232015
[MO833] Paramount Iteration,15,75,0.029952,3.231975
[MO833] Paramount Iteration,9,75,0.029948,3.235924
[MO833] Paramount Iteration,2,76,0.029824,3.265892
[MO833] Paramount Iteration,4,76,0.029814,3.265716
[MO833] Paramount Iteration,0,76,0.029852,3.265468
[MO833] Paramount Iteration,3,76,0.029851,3.265891
[MO833] Paramount Iteration,5,76,0.029840,3.265718
[MO833] Paramount Iteration,6,76,0.029845,3.265774
[MO833] Paramount Iteration,10,76,0.029797,3.263965
[MO833] Paramount Iteration,12,76,0.029783,3.261857
[MO833] Paramount Iteration,14,76,0.029837,3.261829
[MO833] Paramount Iteration,8,76,0.029866,3.265795
[MO833] Paramount Iteration,1,76,0.029792,3.265493
[MO833] Paramount Iteration,7,76,0.029802,3.265761
[MO833] Paramount Iteration,11,76,0.029831,3.263956
[MO833] Paramount Iteration,13,76,0.029823,3.261857
[MO833] Paramount Iteration,15,76,0.029802,3.261828
[MO833] Paramount Iteration,9,76,0.029834,3.265806
[MO833] Paramount Iteration,0,77,0.029573,3.295068
[MO833] Paramount Iteration,1,77,0.029496,3.295093
[MO833] Paramount Iteration,2,77,0.029580,3.295511
[MO833] Paramount Iteration,4,77,0.029571,3.295329
[MO833] Paramount Iteration,6,77,0.029620,3.295400
[MO833] Paramount Iteration,10,77,0.029585,3.293601
[MO833] Paramount Iteration,12,77,0.029570,3.291489
[MO833] Paramount Iteration,8,77,0.029569,3.295383
[MO833] Paramount Iteration,3,77,0.029607,3.295510
[MO833] Paramount Iteration,5,77,0.029606,3.295339
[MO833] Paramount Iteration,7,77,0.029582,3.295391
[MO833] Paramount Iteration,11,77,0.029617,3.293592
[MO833] Paramount Iteration,13,77,0.029612,3.291489
[MO833] Paramount Iteration,14,77,0.029598,3.291451
[MO833] Paramount Iteration,9,77,0.029534,3.295394
[MO833] Paramount Iteration,15,77,0.029564,3.291451
[MO833] Paramount Iteration,2,78,0.029477,3.325030
[MO833] Paramount Iteration,4,78,0.029489,3.324860
[MO833] Paramount Iteration,6,78,0.029463,3.324873
[MO833] Paramount Iteration,10,78,0.029413,3.323071
[MO833] Paramount Iteration,12,78,0.029423,3.320966
[MO833] Paramount Iteration,14,78,0.029441,3.320913
[MO833] Paramount Iteration,8,78,0.029502,3.324906
[MO833] Paramount Iteration,0,78,0.029540,3.324628
[MO833] Paramount Iteration,3,78,0.029507,3.325031
[MO833] Paramount Iteration,5,78,0.029515,3.324862
[MO833] Paramount Iteration,7,78,0.029429,3.324867
[MO833] Paramount Iteration,11,78,0.029445,3.323059
[MO833] Paramount Iteration,13,78,0.029463,3.320968
[MO833] Paramount Iteration,15,78,0.029407,3.320913
[MO833] Paramount Iteration,9,78,0.029464,3.324912
[MO833] Paramount Iteration,1,78,0.029500,3.324653
[MO833] Paramount Iteration,0,79,0.029491,3.354330
[MO833] Paramount Iteration,2,79,0.029691,3.354763
[MO833] Paramount Iteration,6,79,0.029756,3.354645
[MO833] Paramount Iteration,10,79,0.029704,3.352821
[MO833] Paramount Iteration,12,79,0.029693,3.350719
[MO833] Paramount Iteration,8,79,0.029692,3.354614
[MO833] Paramount Iteration,1,79,0.029595,3.354356
[MO833] Paramount Iteration,3,79,0.029723,3.354766
[MO833] Paramount Iteration,4,79,0.029697,3.354595
[MO833] Paramount Iteration,7,79,0.029722,3.354639
[MO833] Paramount Iteration,11,79,0.029737,3.352812
[MO833] Paramount Iteration,13,79,0.029736,3.350720
[MO833] Paramount Iteration,14,79,0.029743,3.350674
[MO833] Paramount Iteration,9,79,0.029658,3.354626
[MO833] Paramount Iteration,5,79,0.029723,3.354598
[MO833] Paramount Iteration,15,79,0.029709,3.350674
[MO833] Paramount Iteration,0,80,0.029952,3.384301
[MO833] Paramount Iteration,2,80,0.029929,3.384730
[MO833] Paramount Iteration,4,80,0.029917,3.384553
[MO833] Paramount Iteration,10,80,0.029905,3.382777
[MO833] Paramount Iteration,12,80,0.029895,3.380671
[MO833] Paramount Iteration,14,80,0.029927,3.380624
[MO833] Paramount Iteration,8,80,0.029944,3.384579
[MO833] Paramount Iteration,1,80,0.029876,3.384324
[MO833] Paramount Iteration,3,80,0.029960,3.384733
[MO833] Paramount Iteration,5,80,0.029941,3.384555
[MO833] Paramount Iteration,6,80,0.029962,3.384618
[MO833] Paramount Iteration,11,80,0.029940,3.382769
[MO833] Paramount Iteration,13,80,0.029936,3.380671
[MO833] Paramount Iteration,15,80,0.029897,3.380628
[MO833] Paramount Iteration,9,80,0.029906,3.384587
[MO833] Paramount Iteration,7,80,0.029932,3.384614
[MO833] Paramount Iteration,0,81,0.029504,3.413823
[MO833] Paramount Iteration,2,81,0.029490,3.414263
[MO833] Paramount Iteration,4,81,0.029482,3.414071
[MO833] Paramount Iteration,8,81,0.029522,3.414119
[MO833] Paramount Iteration,1,81,0.029435,3.413848
[MO833] Paramount Iteration,3,81,0.029518,3.414261
[MO833] Paramount Iteration,5,81,0.029506,3.414074
[MO833] Paramount Iteration,6,81,0.029511,3.414144
[MO833] Paramount Iteration,10,81,0.029511,3.412338
[MO833] Paramount Iteration,12,81,0.029483,3.410212
[MO833] Paramount Iteration,14,81,0.029552,3.410198
[MO833] Paramount Iteration,9,81,0.029489,3.414130
[MO833] Paramount Iteration,7,81,0.029462,3.414131
[MO833] Paramount Iteration,11,81,0.029543,3.412329
[MO833] Paramount Iteration,13,81,0.029524,3.410212
[MO833] Paramount Iteration,15,81,0.029516,3.410198
[MO833] Paramount Iteration,2,82,0.029587,3.443890
[MO833] Paramount Iteration,4,82,0.029591,3.443701
[MO833] Paramount Iteration,12,82,0.029558,3.439826
[MO833] Paramount Iteration,0,82,0.029638,3.443481
[MO833] Paramount Iteration,3,82,0.029617,3.443892
[MO833] Paramount Iteration,5,82,0.029614,3.443703
[MO833] Paramount Iteration,6,82,0.029590,3.443744
[MO833] Paramount Iteration,10,82,0.029555,3.441944
[MO833] Paramount Iteration,13,82,0.029602,3.439829
[MO833] Paramount Iteration,14,82,0.029577,3.439793
[MO833] Paramount Iteration,8,82,0.029626,3.443765
[MO833] Paramount Iteration,1,82,0.029587,3.443506
[MO833] Paramount Iteration,7,82,0.029543,3.443736
[MO833] Paramount Iteration,11,82,0.029586,3.441935
[MO833] Paramount Iteration,15,82,0.029541,3.439793
[MO833] Paramount Iteration,9,82,0.029589,3.443774
[MO833] Paramount Iteration,0,83,0.065638,3.509144
[MO833] Paramount Iteration,2,83,0.065669,3.509598
[MO833] Paramount Iteration,4,83,0.065642,3.509378
[MO833] Paramount Iteration,12,83,0.065657,3.505544
[MO833] Paramount Iteration,8,83,0.065664,3.509447
[MO833] Paramount Iteration,1,83,0.065570,3.509168
[MO833] Paramount Iteration,3,83,0.065700,3.509600
[MO833] Paramount Iteration,5,83,0.065673,3.509388
[MO833] Paramount Iteration,6,83,0.065724,3.509485
[MO833] Paramount Iteration,10,83,0.065664,3.507659
[MO833] Paramount Iteration,13,83,0.065698,3.505544
[MO833] Paramount Iteration,14,83,0.065680,3.505496
[MO833] Paramount Iteration,9,83,0.065631,3.509460
[MO833] Paramount Iteration,7,83,0.065685,3.509480
[MO833] Paramount Iteration,11,83,0.065696,3.507651
[MO833] Paramount Iteration,15,83,0.065645,3.505498
[MO833] Paramount Iteration,2,84,0.029453,3.539096
[MO833] Paramount Iteration,0,84,0.029516,3.538685
[MO833] Paramount Iteration,3,84,0.029483,3.539096
[MO833] Paramount Iteration,4,84,0.029524,3.538949
[MO833] Paramount Iteration,6,84,0.029472,3.538979
[MO833] Paramount Iteration,10,84,0.029457,3.537170
[MO833] Paramount Iteration,12,84,0.029483,3.535087
[MO833] Paramount Iteration,14,84,0.029513,3.535030
[MO833] Paramount Iteration,8,84,0.029523,3.538990
[MO833] Paramount Iteration,1,84,0.029441,3.538708
[MO833] Paramount Iteration,5,84,0.029552,3.538951
[MO833] Paramount Iteration,7,84,0.029423,3.538971
[MO833] Paramount Iteration,11,84,0.029491,3.537161
[MO833] Paramount Iteration,13,84,0.029526,3.535087
[MO833] Paramount Iteration,15,84,0.029479,3.535030
[MO833] Paramount Iteration,9,84,0.029489,3.539001
[MO833] Paramount Iteration,2,85,0.029237,3.568375
[MO833] Paramount Iteration,4,85,0.029200,3.568196
[MO833] Paramount Iteration,6,85,0.029214,3.568206
[MO833] Paramount Iteration,10,85,0.029191,3.566415
[MO833] Paramount Iteration,12,85,0.029156,3.564304
[MO833] Paramount Iteration,14,85,0.029173,3.564222
[MO833] Paramount Iteration,8,85,0.029244,3.568257
[MO833] Paramount Iteration,1,85,0.029191,3.568002
[MO833] Paramount Iteration,3,85,0.029269,3.568378
[MO833] Paramount Iteration,5,85,0.029230,3.568198
[MO833] Paramount Iteration,7,85,0.029176,3.568200
[MO833] Paramount Iteration,11,85,0.029222,3.566404
[MO833] Paramount Iteration,13,85,0.029197,3.564304
[MO833] Paramount Iteration,15,85,0.029139,3.564224
[MO833] Paramount Iteration,9,85,0.029205,3.568264
[MO833] Paramount Iteration,0,85,0.029469,3.568171
[MO833] Paramount Iteration,2,86,0.029596,3.598011
[MO833] Paramount Iteration,4,86,0.029551,3.597804
[MO833] Paramount Iteration,10,86,0.029564,3.596032
[MO833] Paramount Iteration,12,86,0.029544,3.593909
[MO833] Paramount Iteration,14,86,0.029640,3.593882
[MO833] Paramount Iteration,8,86,0.029574,3.597849
[MO833] Paramount Iteration,0,86,0.029384,3.597568
[MO833] Paramount Iteration,3,86,0.029625,3.598012
[MO833] Paramount Iteration,5,86,0.029592,3.597806
[MO833] Paramount Iteration,6,86,0.029660,3.597880
[MO833] Paramount Iteration,11,86,0.029597,3.596022
[MO833] Paramount Iteration,13,86,0.029588,3.593912
[MO833] Paramount Iteration,15,86,0.029608,3.593885
[MO833] Paramount Iteration,9,86,0.029537,3.597858
[MO833] Paramount Iteration,1,86,0.029503,3.597593
[MO833] Paramount Iteration,7,86,0.029623,3.597874
[MO833] Paramount Iteration,0,87,0.029639,3.627232
[MO833] Paramount Iteration,2,87,0.029635,3.627683
[MO833] Paramount Iteration,4,87,0.029639,3.627489
[MO833] Paramount Iteration,12,87,0.029650,3.623623
[MO833] Paramount Iteration,8,87,0.029669,3.627537
[MO833] Paramount Iteration,1,87,0.029569,3.627257
[MO833] Paramount Iteration,3,87,0.029663,3.627684
[MO833] Paramount Iteration,5,87,0.029667,3.627491
[MO833] Paramount Iteration,6,87,0.029685,3.627579
[MO833] Paramount Iteration,10,87,0.029658,3.625739
[MO833] Paramount Iteration,13,87,0.029691,3.623623
[MO833] Paramount Iteration,14,87,0.029693,3.623593
[MO833] Paramount Iteration,9,87,0.029636,3.627548
[MO833] Paramount Iteration,7,87,0.029648,3.627573
[MO833] Paramount Iteration,11,87,0.029691,3.625730
[MO833] Paramount Iteration,15,87,0.029659,3.623593
[MO833] Paramount Iteration,2,88,0.029731,3.657453
[MO833] Paramount Iteration,4,88,0.029734,3.657265
[MO833] Paramount Iteration,6,88,0.029701,3.657299
[MO833] Paramount Iteration,10,88,0.029685,3.655491
[MO833] Paramount Iteration,12,88,0.029701,3.653388
[MO833] Paramount Iteration,14,88,0.029730,3.653346
[MO833] Paramount Iteration,8,88,0.029766,3.657324
[MO833] Paramount Iteration,1,88,0.029722,3.657084
[MO833] Paramount Iteration,3,88,0.029761,3.657454
[MO833] Paramount Iteration,5,88,0.029761,3.657267
[MO833] Paramount Iteration,7,88,0.029646,3.657291
[MO833] Paramount Iteration,11,88,0.029718,3.655481
[MO833] Paramount Iteration,13,88,0.029747,3.653391
[MO833] Paramount Iteration,15,88,0.029694,3.653346
[MO833] Paramount Iteration,9,88,0.029732,3.657336
[MO833] Paramount Iteration,0,88,0.029800,3.657057
[MO833] Paramount Iteration,2,89,0.029762,3.687257
[MO833] Paramount Iteration,4,89,0.029761,3.687073
[MO833] Paramount Iteration,6,89,0.029781,3.687095
[MO833] Paramount Iteration,10,89,0.029753,3.685294
[MO833] Paramount Iteration,12,89,0.029737,3.683181
[MO833] Paramount Iteration,14,89,0.029748,3.683111
[MO833] Paramount Iteration,8,89,0.029807,3.687151
[MO833] Paramount Iteration,3,89,0.029792,3.687258
[MO833] Paramount Iteration,5,89,0.029791,3.687076
[MO833] Paramount Iteration,7,89,0.029743,3.687089
[MO833] Paramount Iteration,11,89,0.029782,3.685282
[MO833] Paramount Iteration,13,89,0.029786,3.683190
[MO833] Paramount Iteration,15,89,0.029715,3.683111
[MO833] Paramount Iteration,9,89,0.029772,3.687162
[MO833] Paramount Iteration,0,89,0.029803,3.687062
[MO833] Paramount Iteration,1,89,0.029920,3.687091
[MO833] Paramount Iteration,0,90,0.029542,3.716621
[MO833] Paramount Iteration,1,90,0.029506,3.716646
[MO833] Paramount Iteration,2,90,0.029781,3.717080
[MO833] Paramount Iteration,4,90,0.029753,3.716878
[MO833] Paramount Iteration,6,90,0.029848,3.716960
[MO833] Paramount Iteration,10,90,0.029813,3.715155
[MO833] Paramount Iteration,12,90,0.029799,3.713041
[MO833] Paramount Iteration,8,90,0.029767,3.716942
[MO833] Paramount Iteration,3,90,0.029808,3.717078
[MO833] Paramount Iteration,5,90,0.029793,3.716885
[MO833] Paramount Iteration,7,90,0.029807,3.716951
[MO833] Paramount Iteration,11,90,0.029846,3.715146
[MO833] Paramount Iteration,13,90,0.029838,3.713041
[MO833] Paramount Iteration,14,90,0.029881,3.713011
[MO833] Paramount Iteration,9,90,0.029735,3.716956
[MO833] Paramount Iteration,15,90,0.029846,3.713012
[MO833] Paramount Iteration,0,91,0.065803,3.782449
[MO833] Paramount Iteration,2,91,0.065777,3.782897
[MO833] Paramount Iteration,4,91,0.065778,3.782702
[MO833] Paramount Iteration,8,91,0.065796,3.782758
[MO833] Paramount Iteration,1,91,0.065749,3.782472
[MO833] Paramount Iteration,3,91,0.065806,3.782896
[MO833] Paramount Iteration,5,91,0.065814,3.782713
[MO833] Paramount Iteration,6,91,0.065786,3.782774
[MO833] Paramount Iteration,10,91,0.065763,3.780966
[MO833] Paramount Iteration,12,91,0.065766,3.778868
[MO833] Paramount Iteration,14,91,0.065791,3.778821
[MO833] Paramount Iteration,9,91,0.065763,3.782769
[MO833] Paramount Iteration,7,91,0.065733,3.782765
[MO833] Paramount Iteration,11,91,0.065794,3.780957
[MO833] Paramount Iteration,13,91,0.065809,3.778868
[MO833] Paramount Iteration,15,91,0.065757,3.778821
[MO833] Paramount Iteration,2,92,0.029821,3.812761
[MO833] Paramount Iteration,4,92,0.029828,3.812578
[MO833] Paramount Iteration,0,92,0.029855,3.812325
[MO833] Paramount Iteration,3,92,0.029851,3.812761
[MO833] Paramount Iteration,5,92,0.029860,3.812583
[MO833] Paramount Iteration,6,92,0.029847,3.812638
[MO833] Paramount Iteration,10,92,0.029812,3.810831
[MO833] Paramount Iteration,12,92,0.029806,3.808734
[MO833] Paramount Iteration,14,92,0.029829,3.808673
[MO833] Paramount Iteration,8,92,0.029881,3.812657
[MO833] Paramount Iteration,1,92,0.029785,3.812347
[MO833] Paramount Iteration,7,92,0.029807,3.812632
[MO833] Paramount Iteration,11,92,0.029848,3.810822
[MO833] Paramount Iteration,13,92,0.029846,3.808734
[MO833] Paramount Iteration,15,92,0.029795,3.808673
[MO833] Paramount Iteration,9,92,0.029846,3.812668
[MO833] Paramount Iteration,2,93,0.029872,3.842673
[MO833] Paramount Iteration,10,93,0.029851,3.840733
[MO833] Paramount Iteration,3,93,0.029902,3.842675
[MO833] Paramount Iteration,4,93,0.029933,3.842553
[MO833] Paramount Iteration,6,93,0.029891,3.842549
[MO833] Paramount Iteration,11,93,0.029885,3.840724
[MO833] Paramount Iteration,12,93,0.029874,3.838667
[MO833] Paramount Iteration,14,93,0.029900,3.838590
[MO833] Paramount Iteration,8,93,0.029943,3.842622
[MO833] Paramount Iteration,5,93,0.029959,3.842554
[MO833] Paramount Iteration,7,93,0.029854,3.842543
[MO833] Paramount Iteration,13,93,0.029920,3.838671
[MO833] Paramount Iteration,15,93,0.029864,3.838591
[MO833] Paramount Iteration,9,93,0.029907,3.842629
[MO833] Paramount Iteration,0,93,0.030179,3.842525
[MO833] Paramount Iteration,1,93,0.030092,3.842548
[MO833] Paramount Iteration,2,94,0.029430,3.872141
[MO833] Paramount Iteration,6,94,0.029452,3.872018
[MO833] Paramount Iteration,10,94,0.029405,3.870185
[MO833] Paramount Iteration,12,94,0.029387,3.868116
[MO833] Paramount Iteration,14,94,0.029406,3.868018
[MO833] Paramount Iteration,8,94,0.029390,3.872026
[MO833] Paramount Iteration,0,94,0.029199,3.871741
[MO833] Paramount Iteration,3,94,0.029458,3.872142
[MO833] Paramount Iteration,4,94,0.029413,3.872006
[MO833] Paramount Iteration,7,94,0.029416,3.872013
[MO833] Paramount Iteration,11,94,0.029436,3.870176
[MO833] Paramount Iteration,13,94,0.029433,3.868120
[MO833] Paramount Iteration,15,94,0.029376,3.868023
[MO833] Paramount Iteration,9,94,0.029355,3.872037
[MO833] Paramount Iteration,1,94,0.029162,3.871766
[MO833] Paramount Iteration,5,94,0.029439,3.872008
[MO833] Paramount Iteration,0,95,0.029164,3.901128
[MO833] Paramount Iteration,2,95,0.029401,3.901580
[MO833] Paramount Iteration,4,95,0.029334,3.901379
[MO833] Paramount Iteration,12,95,0.029338,3.897515
[MO833] Paramount Iteration,8,95,0.029378,3.901425
[MO833] Paramount Iteration,1,95,0.029285,3.901154
[MO833] Paramount Iteration,3,95,0.029430,3.901581
[MO833] Paramount Iteration,5,95,0.029359,3.901381
[MO833] Paramount Iteration,6,95,0.029422,3.901456
[MO833] Paramount Iteration,10,95,0.029393,3.899627
[MO833] Paramount Iteration,13,95,0.029378,3.897515
[MO833] Paramount Iteration,14,95,0.029443,3.897481
[MO833] Paramount Iteration,9,95,0.029342,3.901436
[MO833] Paramount Iteration,7,95,0.029386,3.901450
[MO833] Paramount Iteration,11,95,0.029424,3.899618
[MO833] Paramount Iteration,15,95,0.029410,3.897482
[MO833] Paramount Iteration,0,96,0.029570,3.930723
[MO833] Paramount Iteration,1,96,0.029511,3.930745
[MO833] Paramount Iteration,2,96,0.029553,3.931174
[MO833] Paramount Iteration,4,96,0.029548,3.930972
[MO833] Paramount Iteration,6,96,0.029566,3.931036
[MO833] Paramount Iteration,10,96,0.029565,3.929244
[MO833] Paramount Iteration,12,96,0.029540,3.927116
[MO833] Paramount Iteration,14,96,0.029587,3.927089
[MO833] Paramount Iteration,8,96,0.029614,3.931059
[MO833] Paramount Iteration,3,96,0.029579,3.931172
[MO833] Paramount Iteration,5,96,0.029576,3.930974
[MO833] Paramount Iteration,7,96,0.029527,3.931027
[MO833] Paramount Iteration,11,96,0.029599,3.929235
[MO833] Paramount Iteration,13,96,0.029580,3.927116
[MO833] Paramount Iteration,15,96,0.029549,3.927086
[MO833] Paramount Iteration,9,96,0.029580,3.931070
[MO833] Paramount Iteration,4,97,0.029305,3.960319
[MO833] Paramount Iteration,12,97,0.029251,3.956426
[MO833] Paramount Iteration,14,97,0.029271,3.956376
[MO833] Paramount Iteration,1,97,0.029296,3.960124
[MO833] Paramount Iteration,2,97,0.029332,3.960544
[MO833] Paramount Iteration,5,97,0.029332,3.960321
[MO833] Paramount Iteration,6,97,0.029322,3.960370
[MO833] Paramount Iteration,10,97,0.029272,3.958571
[MO833] Paramount Iteration,13,97,0.029294,3.956429
[MO833] Paramount Iteration,15,97,0.029240,3.956379
[MO833] Paramount Iteration,8,97,0.029304,3.960382
[MO833] Paramount Iteration,3,97,0.029360,3.960545
[MO833] Paramount Iteration,7,97,0.029287,3.960365
[MO833] Paramount Iteration,11,97,0.029303,3.958558
[MO833] Paramount Iteration,9,97,0.029265,3.960388
[MO833] Paramount Iteration,0,97,0.029357,3.960099
[MO833] Paramount Iteration,2,98,0.029384,3.989966
[MO833] Paramount Iteration,4,98,0.029428,3.989789
[MO833] Paramount Iteration,6,98,0.029440,3.989825
[MO833] Paramount Iteration,10,98,0.029381,3.987997
[MO833] Paramount Iteration,12,98,0.029417,3.985903
[MO833] Paramount Iteration,14,98,0.029435,3.985828
[MO833] Paramount Iteration,8,98,0.029462,3.989862
[MO833] Paramount Iteration,0,98,0.029260,3.989563
[MO833] Paramount Iteration,3,98,0.029414,3.989968
[MO833] Paramount Iteration,5,98,0.029453,3.989791
[MO833] Paramount Iteration,7,98,0.029462,3.989875
[MO833] Paramount Iteration,11,98,0.029410,3.987985
[MO833] Paramount Iteration,13,98,0.029460,3.985906
[MO833] Paramount Iteration,15,98,0.029405,3.985831
[MO833] Paramount Iteration,9,98,0.029428,3.989873
[MO833] Paramount Iteration,1,98,0.029381,3.989588
[MO833] Paramount Iteration,2,99,0.029581,4.019586
[MO833] Paramount Iteration,4,99,0.029567,4.019395
[MO833] Paramount Iteration,6,99,0.029580,4.019422
[MO833] Paramount Iteration,10,99,0.029569,4.017618
[MO833] Paramount Iteration,12,99,0.029547,4.015508
[MO833] Paramount Iteration,14,99,0.029583,4.015435
[MO833] Paramount Iteration,8,99,0.029580,4.019465
[MO833] Paramount Iteration,1,99,0.029517,4.019203
[MO833] Paramount Iteration,3,99,0.029613,4.019589
[MO833] Paramount Iteration,5,99,0.029593,4.019398
[MO833] Paramount Iteration,7,99,0.029515,4.019416
[MO833] Paramount Iteration,11,99,0.029607,4.017612
[MO833] Paramount Iteration,13,99,0.029591,4.015511
[MO833] Paramount Iteration,15,99,0.029547,4.015436
[MO833] Paramount Iteration,9,99,0.029543,4.019474
[MO833] Paramount Iteration,0,99,0.029402,4.019178
---------------- Step      100 ----- CPU =      3.3441 (sec) ----------------
TotEng   =    -25290.7303 KinEng   =     21591.9084 Temp     =       301.0906 
PotEng   =    -46882.6387 E_bond   =      2567.9807 E_angle  =     10781.9571 
E_dihed  =      5198.7492 E_impro  =       216.7864 E_vdwl   =     -1902.6618 
E_coul   =    206659.5226 E_long   =   -270404.9730 Press    =         6.7406 
Volume   =    308134.2285 
[MO833] Paramount Iteration,0,100,0.075399,4.094806
[MO833] Paramount Iteration,2,100,0.075593,4.095221
[MO833] Paramount Iteration,4,100,0.075582,4.095018
[MO833] Paramount Iteration,8,100,0.075596,4.095082
[MO833] Paramount Iteration,1,100,0.075518,4.094809
[MO833] Paramount Iteration,3,100,0.075621,4.095221
[MO833] Paramount Iteration,5,100,0.075612,4.095023
[MO833] Paramount Iteration,6,100,0.075661,4.095095
[MO833] Paramount Iteration,10,100,0.075611,4.093281
[MO833] Paramount Iteration,12,100,0.075599,4.091169
[MO833] Paramount Iteration,14,100,0.075674,4.091132
[MO833] Paramount Iteration,9,100,0.075561,4.095093
[MO833] Paramount Iteration,7,100,0.075628,4.095090
[MO833] Paramount Iteration,11,100,0.075645,4.093273
[MO833] Paramount Iteration,13,100,0.075641,4.091170
[MO833] Paramount Iteration,15,100,0.075639,4.091133
Loop time of 3.34507 on 16 procs for 100 steps with 32000 atoms

Performance: 5.166 ns/day, 4.646 hours/ns, 29.895 timesteps/s
89.9% CPU use with 16 MPI tasks x 1 OpenMP threads

MPI task timing breakdown:
Section |  min time  |  avg time  |  max time  |%varavg| %total
---------------------------------------------------------------
Pair    | 1.8475     | 1.9896     | 2.0643     |   4.1 | 59.48
Bond    | 0.069525   | 0.081855   | 0.091501   |   2.5 |  2.45
Kspace  | 0.43807    | 0.50979    | 0.64677    |   7.9 | 15.24
Neigh   | 0.3692     | 0.3698     | 0.37072    |   0.1 | 11.05
Comm    | 0.12809    | 0.13642    | 0.14398    |   1.3 |  4.08
Output  | 0.0022223  | 0.0022768  | 0.002542   |   0.1 |  0.07
Modify  | 0.22509    | 0.23822    | 0.24516    |   0.9 |  7.12
Other   |            | 0.01712    |            |       |  0.51

Nlocal:    2000 ave 2075 max 1940 min
Histogram: 2 1 1 2 5 2 0 2 0 1
Nghost:    11843.2 ave 11929 max 11761 min
Histogram: 3 0 2 1 3 0 2 3 1 1
Neighs:    751756 ave 797548 max 712805 min
Histogram: 2 0 1 4 3 2 2 1 0 1

Total # of neighbors = 12028093
Ave neighs/atom = 375.878
Ave special neighs/atom = 7.43187
Neighbor list builds = 11
Dangerous builds = 0
Total wall time: 0:00:04
[MO833] Beta,2,0.232109
[MO833] Beta,1,0.231993
[MO833] PI avg,2,0.033448,100
[MO833] PI avg,1,0.033448,100
[MO833] Beta,3,0.232132
[MO833] PI avg,3,0.033448,100
[MO833] Beta,12,0.230939
[MO833] Beta,4,0.232109
[MO833] Beta,6,0.232103
[MO833] PI avg,6,0.033448,100
[MO833] PI avg,12,0.033448,100
[MO833] PI avg,4,0.033448,100
[MO833] Beta,11,0.231594
[MO833] PI avg,11,0.033447,100
[MO833] Beta,9,0.232121
[MO833] PI avg,9,0.033448,100
[MO833] Beta,8,0.232152
[MO833] PI avg,8,0.033448,100
[MO833] Beta,5,0.232147
[MO833] PI avg,5,0.033447,100
[MO833] Beta,14,0.230980
[MO833] PI avg,14,0.033447,100
[MO833] Beta,7,0.232151
[MO833] PI avg,7,0.033448,100
[MO833] Beta,13,0.231011
[MO833] PI avg,13,0.033447,100
[MO833] Beta,10,0.231645
[MO833] PI avg,10,0.033448,100
[MO833] Beta,15,0.231020
[MO833] PI avg,15,0.033448,100
[MO833] Beta,0,0.232174
[MO833] PI avg,0,0.033448,100
[MO833] Total time,4.121362
