LAMMPS (3 Mar 2020)
OMP_NUM_THREADS environment is not set. Defaulting to 1 thread. (src/comm.cpp:94)
  using 1 OpenMP thread(s) per MPI task
Reading data file ...
  orthogonal box = (0 0 0) to (3.1 3.1 3.1)
  2 by 2 by 2 MPI processor grid
  reading atoms ...
  3 atoms
  scanning bonds ...
  2 = max bonds/atom
  scanning angles ...
  1 = max angles/atom
  reading bonds ...
  2 bonds
  reading angles ...
  1 angles
Finding 1-2 1-3 1-4 neighbors ...
  special bond factors lj:   0          0          0         
  special bond factors coul: 0          0          0         
  2 = max # of 1-2 neighbors
  1 = max # of 1-3 neighbors
  1 = max # of 1-4 neighbors
  2 = max # of special neighbors
  special bonds CPU = 0.0101762 secs
  read_data CPU = 0.0261371 secs
Replicating atoms ...
  orthogonal box = (0 0 0) to (62 62 62)
  2 by 2 by 2 MPI processor grid
  24000 atoms
  16000 bonds
  8000 angles
Finding 1-2 1-3 1-4 neighbors ...
  special bond factors lj:   0          0          0         
  special bond factors coul: 0          0          0         
  2 = max # of 1-2 neighbors
  1 = max # of 1-3 neighbors
  1 = max # of 1-4 neighbors
  2 = max # of special neighbors
  special bonds CPU = 0.00789285 secs
  replicate CPU = 0.020453 secs
Displacing atoms ...
Changing box ...
  orthogonal box = (-31 0 0) to (31 62 62)
Changing box ...
  orthogonal box = (-31 -31 0) to (31 31 62)
Changing box ...
  orthogonal box = (-31 -31 -31) to (31 31 31)
Changing box ...
  orthogonal box = (-31 -31 -124) to (31 31 124)
16000 atoms in group hydrogen
8000 atoms in group oxygen
Finding SHAKE clusters ...
  0 = # of size 2 clusters
  0 = # of size 3 clusters
  0 = # of size 4 clusters
  8000 = # of frozen angles
  find clusters CPU = 0.00283051 secs
PPPM initialization ...
  extracting TIP4P info from pair style
  using 12-bit tables for long-range coulomb (src/kspace.cpp:332)
  G vector (1/distance) = 0.230756
  grid = 45 45 120
  stencil order = 5
  estimated absolute RMS force accuracy = 0.00315988
  estimated relative force accuracy = 9.51587e-06
  using double precision KISS FFT
  3d grid and FFT values/proc = 56347 31740
Neighbor list info ...
  update every 1 steps, delay 0 steps, check yes
  max neighbors/atom: 2000, page size: 100000
  master list distance cutoff = 15.3092
  ghost atom cutoff = 15.3092
  binsize = 7.6546, bins = 9 9 33
  1 neighbor lists, perpetual/occasional/extra = 1 0 0
  (1) pair lj/cut/tip4p/long, perpetual
      attributes: half, newton on
      pair build: half/bin/newton
      stencil: half/bin/3d/newton
      bin: standard
Setting up Verlet run ...
  Unit style    : real
  Current step  : 0
  Time step     : 2
Per MPI rank memory allocation (min/avg/max) = 31.37 | 32.17 | 33.02 Mbytes
Step Temp f_TAve Press f_PAve v_xyArea Lz f_st 
       0    450.00938            0    13733.809            0         3844          248            0 
[MO833] Paramount Iteration,0,1,0.104028,0.582777
[MO833] Paramount Iteration,2,1,0.104026,0.582743
[MO833] Paramount Iteration,4,1,0.103995,0.582200
[MO833] Paramount Iteration,6,1,0.103993,0.582655
[MO833] Paramount Iteration,1,1,0.104028,0.582769
[MO833] Paramount Iteration,3,1,0.104029,0.582746
[MO833] Paramount Iteration,5,1,0.103996,0.582219
[MO833] Paramount Iteration,7,1,0.103999,0.582689
[MO833] Paramount Iteration,0,2,0.102700,0.685687
[MO833] Paramount Iteration,2,2,0.102876,0.685643
[MO833] Paramount Iteration,6,2,0.102901,0.685584
[MO833] Paramount Iteration,1,2,0.102889,0.685679
[MO833] Paramount Iteration,3,2,0.102846,0.685646
[MO833] Paramount Iteration,4,2,0.102894,0.685125
[MO833] Paramount Iteration,7,2,0.102859,0.685612
[MO833] Paramount Iteration,5,2,0.102862,0.685143
[MO833] Paramount Iteration,0,3,0.103177,0.788884
[MO833] Paramount Iteration,2,3,0.103170,0.788833
[MO833] Paramount Iteration,6,3,0.103175,0.788780
[MO833] Paramount Iteration,1,3,0.103115,0.788881
[MO833] Paramount Iteration,3,3,0.103139,0.788836
[MO833] Paramount Iteration,4,3,0.103207,0.788349
[MO833] Paramount Iteration,7,3,0.103133,0.788808
[MO833] Paramount Iteration,5,3,0.103162,0.788367
[MO833] Paramount Iteration,0,4,0.102643,0.891696
[MO833] Paramount Iteration,4,4,0.102736,0.891106
[MO833] Paramount Iteration,1,4,0.102792,0.891688
[MO833] Paramount Iteration,2,4,0.102838,0.891689
[MO833] Paramount Iteration,5,4,0.102706,0.891129
[MO833] Paramount Iteration,6,4,0.102795,0.891592
[MO833] Paramount Iteration,3,4,0.102805,0.891691
[MO833] Paramount Iteration,7,4,0.102768,0.891626
[MO833] Paramount Iteration,0,5,0.102889,0.994605
[MO833] Paramount Iteration,1,5,0.102856,0.994599
[MO833] Paramount Iteration,2,5,0.102866,0.994572
[MO833] Paramount Iteration,4,5,0.102920,0.994045
[MO833] Paramount Iteration,6,5,0.102890,0.994506
[MO833] Paramount Iteration,3,5,0.102835,0.994574
[MO833] Paramount Iteration,5,5,0.102886,0.994063
[MO833] Paramount Iteration,7,5,0.102844,0.994533
[MO833] Paramount Iteration,0,6,0.102811,1.097578
[MO833] Paramount Iteration,1,6,0.102958,1.097573
[MO833] Paramount Iteration,2,6,0.102944,1.097547
[MO833] Paramount Iteration,4,6,0.102966,1.097031
[MO833] Paramount Iteration,6,6,0.102975,1.097499
[MO833] Paramount Iteration,3,6,0.102911,1.097548
[MO833] Paramount Iteration,5,6,0.102932,1.097050
[MO833] Paramount Iteration,7,6,0.102932,1.097527
[MO833] Paramount Iteration,0,7,0.185553,1.283291
[MO833] Paramount Iteration,1,7,0.185697,1.283286
[MO833] Paramount Iteration,2,7,0.185707,1.283272
[MO833] Paramount Iteration,4,7,0.185683,1.282735
[MO833] Paramount Iteration,6,7,0.185648,1.283168
[MO833] Paramount Iteration,3,7,0.185675,1.283272
[MO833] Paramount Iteration,5,7,0.185637,1.282753
[MO833] Paramount Iteration,7,7,0.185605,1.283196
[MO833] Paramount Iteration,0,8,0.107236,1.390546
[MO833] Paramount Iteration,1,8,0.107192,1.390541
[MO833] Paramount Iteration,2,8,0.107228,1.390522
[MO833] Paramount Iteration,4,8,0.107237,1.390000
[MO833] Paramount Iteration,6,8,0.107270,1.390462
[MO833] Paramount Iteration,3,8,0.107196,1.390524
[MO833] Paramount Iteration,5,8,0.107203,1.390018
[MO833] Paramount Iteration,7,8,0.107226,1.390490
[MO833] Paramount Iteration,0,9,0.106549,1.497250
[MO833] Paramount Iteration,1,9,0.106686,1.497244
[MO833] Paramount Iteration,2,9,0.106692,1.497236
[MO833] Paramount Iteration,4,9,0.106676,1.496697
[MO833] Paramount Iteration,6,9,0.106694,1.497175
[MO833] Paramount Iteration,3,9,0.106659,1.497239
[MO833] Paramount Iteration,5,9,0.106643,1.496715
[MO833] Paramount Iteration,7,9,0.106651,1.497203
[MO833] Paramount Iteration,0,10,0.106903,1.604173
[MO833] Paramount Iteration,2,10,0.106862,1.604119
[MO833] Paramount Iteration,1,10,0.106867,1.604169
[MO833] Paramount Iteration,3,10,0.106831,1.604122
[MO833] Paramount Iteration,4,10,0.106915,1.603630
[MO833] Paramount Iteration,6,10,0.106859,1.604053
[MO833] Paramount Iteration,5,10,0.106883,1.603649
[MO833] Paramount Iteration,7,10,0.106816,1.604081
[MO833] Paramount Iteration,6,11,0.187837,1.791912
[MO833] Paramount Iteration,0,11,0.187917,1.792107
[MO833] Paramount Iteration,2,11,0.187889,1.792030
[MO833] Paramount Iteration,7,11,0.187796,1.791942
[MO833] Paramount Iteration,3,11,0.187857,1.792030
[MO833] Paramount Iteration,1,11,0.187962,1.792209
[MO833] Paramount Iteration,4,11,0.187859,1.791508
[MO833] Paramount Iteration,5,11,0.187830,1.791531
[MO833] Paramount Iteration,0,12,0.108435,1.900589
[MO833] Paramount Iteration,1,12,0.108304,1.900583
[MO833] Paramount Iteration,2,12,0.108523,1.900575
[MO833] Paramount Iteration,4,12,0.108495,1.900028
[MO833] Paramount Iteration,6,12,0.108569,1.900501
[MO833] Paramount Iteration,3,12,0.108492,1.900577
[MO833] Paramount Iteration,5,12,0.108460,1.900046
[MO833] Paramount Iteration,7,12,0.108528,1.900529
[MO833] Paramount Iteration,0,13,0.108890,2.009498
[MO833] Paramount Iteration,2,13,0.108849,2.009443
[MO833] Paramount Iteration,6,13,0.108846,2.009367
[MO833] Paramount Iteration,1,13,0.108744,2.009495
[MO833] Paramount Iteration,3,13,0.108815,2.009445
[MO833] Paramount Iteration,4,13,0.108902,2.008953
[MO833] Paramount Iteration,7,13,0.108806,2.009395
[MO833] Paramount Iteration,5,13,0.108868,2.008971
[MO833] Paramount Iteration,0,14,0.189992,2.199510
[MO833] Paramount Iteration,2,14,0.189988,2.199453
[MO833] Paramount Iteration,4,14,0.189934,2.198904
[MO833] Paramount Iteration,6,14,0.189947,2.199331
[MO833] Paramount Iteration,1,14,0.189843,2.199502
[MO833] Paramount Iteration,3,14,0.189955,2.199455
[MO833] Paramount Iteration,5,14,0.189901,2.198925
[MO833] Paramount Iteration,7,14,0.189913,2.199365
[MO833] Paramount Iteration,0,15,0.110821,2.310350
[MO833] Paramount Iteration,4,15,0.110820,2.309745
[MO833] Paramount Iteration,1,15,0.110649,2.310342
[MO833] Paramount Iteration,2,15,0.110873,2.310345
[MO833] Paramount Iteration,5,15,0.110789,2.309768
[MO833] Paramount Iteration,6,15,0.110892,2.310243
[MO833] Paramount Iteration,3,15,0.110841,2.310347
[MO833] Paramount Iteration,7,15,0.110849,2.310271
[MO833] Paramount Iteration,0,16,0.109731,2.420099
[MO833] Paramount Iteration,1,16,0.109581,2.420094
[MO833] Paramount Iteration,2,16,0.109716,2.420081
[MO833] Paramount Iteration,4,16,0.109776,2.419544
[MO833] Paramount Iteration,6,16,0.109733,2.420000
[MO833] Paramount Iteration,3,16,0.109679,2.420083
[MO833] Paramount Iteration,5,16,0.109741,2.419562
[MO833] Paramount Iteration,7,16,0.109688,2.420028
[MO833] Paramount Iteration,0,17,0.189642,2.609761
[MO833] Paramount Iteration,1,17,0.189499,2.609757
[MO833] Paramount Iteration,2,17,0.189622,2.609726
[MO833] Paramount Iteration,4,17,0.189645,2.609208
[MO833] Paramount Iteration,6,17,0.189598,2.609618
[MO833] Paramount Iteration,3,17,0.189589,2.609727
[MO833] Paramount Iteration,5,17,0.189610,2.609226
[MO833] Paramount Iteration,7,17,0.189557,2.609646
[MO833] Paramount Iteration,2,18,0.110337,2.720086
[MO833] Paramount Iteration,6,18,0.110316,2.719956
[MO833] Paramount Iteration,0,18,0.110374,2.720153
[MO833] Paramount Iteration,3,18,0.110303,2.720087
[MO833] Paramount Iteration,4,18,0.110316,2.719545
[MO833] Paramount Iteration,7,18,0.110278,2.719988
[MO833] Paramount Iteration,5,18,0.110283,2.719566
[MO833] Paramount Iteration,1,18,0.110234,2.720146
[MO833] Paramount Iteration,0,19,0.109680,2.829890
[MO833] Paramount Iteration,2,19,0.109730,2.829837
[MO833] Paramount Iteration,4,19,0.109735,2.829323
[MO833] Paramount Iteration,6,19,0.109766,2.829744
[MO833] Paramount Iteration,1,19,0.109553,2.829885
[MO833] Paramount Iteration,3,19,0.109700,2.829840
[MO833] Paramount Iteration,5,19,0.109698,2.829341
[MO833] Paramount Iteration,7,19,0.109723,2.829773
[MO833] Paramount Iteration,0,20,0.191152,3.021064
[MO833] Paramount Iteration,1,20,0.191001,3.021056
[MO833] Paramount Iteration,2,20,0.191200,3.021059
[MO833] Paramount Iteration,4,20,0.191138,3.020483
[MO833] Paramount Iteration,6,20,0.191153,3.020916
[MO833] Paramount Iteration,3,20,0.191169,3.021062
[MO833] Paramount Iteration,5,20,0.191104,3.020501
[MO833] Paramount Iteration,7,20,0.191114,3.020949
[MO833] Paramount Iteration,0,21,0.111025,3.132107
[MO833] Paramount Iteration,1,21,0.110880,3.132101
[MO833] Paramount Iteration,2,21,0.110986,3.132069
[MO833] Paramount Iteration,4,21,0.111040,3.131542
[MO833] Paramount Iteration,6,21,0.111037,3.131973
[MO833] Paramount Iteration,3,21,0.110955,3.132072
[MO833] Paramount Iteration,5,21,0.111004,3.131560
[MO833] Paramount Iteration,7,21,0.110994,3.132001
[MO833] Paramount Iteration,6,22,0.110746,3.242738
[MO833] Paramount Iteration,0,22,0.110774,3.242944
[MO833] Paramount Iteration,2,22,0.110791,3.242881
[MO833] Paramount Iteration,4,22,0.110763,3.242325
[MO833] Paramount Iteration,7,22,0.110708,3.242769
[MO833] Paramount Iteration,1,22,0.110824,3.242944
[MO833] Paramount Iteration,3,22,0.110758,3.242882
[MO833] Paramount Iteration,5,22,0.110719,3.242344
[MO833] Paramount Iteration,4,23,0.191895,3.434242
[MO833] Paramount Iteration,1,23,0.191789,3.434883
[MO833] Paramount Iteration,5,23,0.191860,3.434260
[MO833] Paramount Iteration,6,23,0.191972,3.434731
[MO833] Paramount Iteration,2,23,0.191977,3.434879
[MO833] Paramount Iteration,7,23,0.191932,3.434761
[MO833] Paramount Iteration,0,23,0.191876,3.434891
[MO833] Paramount Iteration,3,23,0.191942,3.434879
[MO833] Paramount Iteration,0,24,0.111316,3.546339
[MO833] Paramount Iteration,1,24,0.111374,3.546333
[MO833] Paramount Iteration,2,24,0.111412,3.546311
[MO833] Paramount Iteration,4,24,0.111499,3.545761
[MO833] Paramount Iteration,6,24,0.111459,3.546211
[MO833] Paramount Iteration,3,24,0.111381,3.546314
[MO833] Paramount Iteration,5,24,0.111459,3.545780
[MO833] Paramount Iteration,7,24,0.111416,3.546240
[MO833] Paramount Iteration,0,25,0.110428,3.656788
[MO833] Paramount Iteration,4,25,0.110390,3.656169
[MO833] Paramount Iteration,1,25,0.110265,3.656782
[MO833] Paramount Iteration,2,25,0.110441,3.656771
[MO833] Paramount Iteration,5,25,0.110360,3.656192
[MO833] Paramount Iteration,6,25,0.110385,3.656622
[MO833] Paramount Iteration,3,25,0.110406,3.656771
[MO833] Paramount Iteration,7,25,0.110343,3.656653
[MO833] Paramount Iteration,0,26,0.190893,3.847704
[MO833] Paramount Iteration,4,26,0.190891,3.847080
[MO833] Paramount Iteration,6,26,0.190876,3.847521
[MO833] Paramount Iteration,1,26,0.190840,3.847697
[MO833] Paramount Iteration,2,26,0.190883,3.847675
[MO833] Paramount Iteration,5,26,0.190864,3.847105
[MO833] Paramount Iteration,7,26,0.190839,3.847555
[MO833] Paramount Iteration,3,26,0.190849,3.847675
[MO833] Paramount Iteration,0,27,0.110147,3.957869
[MO833] Paramount Iteration,1,27,0.110101,3.957863
[MO833] Paramount Iteration,2,27,0.110158,3.957854
[MO833] Paramount Iteration,4,27,0.110184,3.957287
[MO833] Paramount Iteration,3,27,0.110124,3.957855
[MO833] Paramount Iteration,5,27,0.110149,3.957305
[MO833] Paramount Iteration,6,27,0.110192,3.957737
[MO833] Paramount Iteration,7,27,0.110149,3.957765
[MO833] Paramount Iteration,0,28,0.109620,4.067509
[MO833] Paramount Iteration,2,28,0.109570,4.067447
[MO833] Paramount Iteration,4,28,0.109583,4.066887
[MO833] Paramount Iteration,6,28,0.109533,4.067293
[MO833] Paramount Iteration,1,28,0.109578,4.067501
[MO833] Paramount Iteration,3,28,0.109539,4.067449
[MO833] Paramount Iteration,5,28,0.109551,4.066907
[MO833] Paramount Iteration,7,28,0.109495,4.067327
[MO833] Paramount Iteration,0,29,0.190420,4.257945
[MO833] Paramount Iteration,1,29,0.190243,4.257940
[MO833] Paramount Iteration,2,29,0.190441,4.257908
[MO833] Paramount Iteration,4,29,0.190447,4.257357
[MO833] Paramount Iteration,6,29,0.190488,4.257801
[MO833] Paramount Iteration,3,29,0.190414,4.257914
[MO833] Paramount Iteration,5,29,0.190412,4.257375
[MO833] Paramount Iteration,7,29,0.190444,4.257828
[MO833] Paramount Iteration,0,30,0.110495,4.368463
[MO833] Paramount Iteration,1,30,0.110339,4.368457
[MO833] Paramount Iteration,2,30,0.110504,4.368430
[MO833] Paramount Iteration,4,30,0.110496,4.367875
[MO833] Paramount Iteration,6,30,0.110494,4.368317
[MO833] Paramount Iteration,3,30,0.110477,4.368435
[MO833] Paramount Iteration,5,30,0.110462,4.367893
[MO833] Paramount Iteration,7,30,0.110450,4.368345
[MO833] Paramount Iteration,0,31,0.111156,4.479636
[MO833] Paramount Iteration,2,31,0.111138,4.479588
[MO833] Paramount Iteration,1,31,0.111005,4.479633
[MO833] Paramount Iteration,3,31,0.111108,4.479591
[MO833] Paramount Iteration,4,31,0.111177,4.479070
[MO833] Paramount Iteration,6,31,0.111132,4.479470
[MO833] Paramount Iteration,5,31,0.111143,4.479088
[MO833] Paramount Iteration,7,31,0.111092,4.479498
[MO833] Paramount Iteration,0,32,0.190714,4.670370
[MO833] Paramount Iteration,4,32,0.190646,4.669737
[MO833] Paramount Iteration,6,32,0.190658,4.670159
[MO833] Paramount Iteration,1,32,0.190557,4.670362
[MO833] Paramount Iteration,2,32,0.190714,4.670319
[MO833] Paramount Iteration,5,32,0.190613,4.669757
[MO833] Paramount Iteration,7,32,0.190618,4.670188
[MO833] Paramount Iteration,3,32,0.190682,4.670319
[MO833] Paramount Iteration,0,33,0.110225,4.780614
[MO833] Paramount Iteration,4,33,0.110220,4.779975
[MO833] Paramount Iteration,6,33,0.110226,4.780408
[MO833] Paramount Iteration,1,33,0.110163,4.780606
[MO833] Paramount Iteration,2,33,0.110237,4.780576
[MO833] Paramount Iteration,5,33,0.110190,4.779998
[MO833] Paramount Iteration,7,33,0.110191,4.780442
[MO833] Paramount Iteration,3,33,0.110207,4.780579
[MO833] Paramount Iteration,2,34,0.109923,4.890518
[MO833] Paramount Iteration,4,34,0.109955,4.889954
[MO833] Paramount Iteration,6,34,0.109919,4.890347
[MO833] Paramount Iteration,0,34,0.109955,4.890587
[MO833] Paramount Iteration,3,34,0.109892,4.890520
[MO833] Paramount Iteration,5,34,0.109924,4.889975
[MO833] Paramount Iteration,7,34,0.109883,4.890381
[MO833] Paramount Iteration,1,34,0.109898,4.890579
[MO833] Paramount Iteration,0,35,0.190476,5.081082
[MO833] Paramount Iteration,4,35,0.190468,5.080442
[MO833] Paramount Iteration,1,35,0.190412,5.081074
[MO833] Paramount Iteration,2,35,0.190496,5.081032
[MO833] Paramount Iteration,5,35,0.190439,5.080465
[MO833] Paramount Iteration,6,35,0.190490,5.080860
[MO833] Paramount Iteration,3,35,0.190465,5.081034
[MO833] Paramount Iteration,7,35,0.190452,5.080893
[MO833] Paramount Iteration,0,36,0.109699,5.190799
[MO833] Paramount Iteration,2,36,0.109667,5.190721
[MO833] Paramount Iteration,1,36,0.109652,5.190794
[MO833] Paramount Iteration,3,36,0.109634,5.190723
[MO833] Paramount Iteration,4,36,0.109751,5.190211
[MO833] Paramount Iteration,6,36,0.109705,5.190587
[MO833] Paramount Iteration,5,36,0.109705,5.190229
[MO833] Paramount Iteration,7,36,0.109664,5.190615
[MO833] Paramount Iteration,0,37,0.110779,5.301597
[MO833] Paramount Iteration,1,37,0.110718,5.301589
[MO833] Paramount Iteration,2,37,0.110819,5.301561
[MO833] Paramount Iteration,4,37,0.110751,5.300983
[MO833] Paramount Iteration,6,37,0.110765,5.301385
[MO833] Paramount Iteration,3,37,0.110786,5.301561
[MO833] Paramount Iteration,5,37,0.110718,5.301001
[MO833] Paramount Iteration,7,37,0.110727,5.301417
[MO833] Paramount Iteration,4,38,0.192022,5.493026
[MO833] Paramount Iteration,5,38,0.191988,5.493044
[MO833] Paramount Iteration,6,38,0.192118,5.493527
[MO833] Paramount Iteration,0,38,0.192189,5.493804
[MO833] Paramount Iteration,2,38,0.192123,5.493704
[MO833] Paramount Iteration,7,38,0.192076,5.493555
[MO833] Paramount Iteration,3,38,0.192090,5.493704
[MO833] Paramount Iteration,1,38,0.192147,5.493796
[MO833] Paramount Iteration,0,39,0.110162,5.604008
[MO833] Paramount Iteration,4,39,0.110318,5.603364
[MO833] Paramount Iteration,6,39,0.110223,5.603773
[MO833] Paramount Iteration,1,39,0.110091,5.604000
[MO833] Paramount Iteration,2,39,0.110218,5.603943
[MO833] Paramount Iteration,5,39,0.110288,5.603386
[MO833] Paramount Iteration,7,39,0.110196,5.603817
[MO833] Paramount Iteration,3,39,0.110186,5.603945
[MO833] Paramount Iteration,0,40,0.110176,5.714203
[MO833] Paramount Iteration,2,40,0.110164,5.714128
[MO833] Paramount Iteration,1,40,0.110119,5.714197
[MO833] Paramount Iteration,3,40,0.110135,5.714131
[MO833] Paramount Iteration,4,40,0.110218,5.713605
[MO833] Paramount Iteration,6,40,0.110192,5.713986
[MO833] Paramount Iteration,5,40,0.110183,5.713623
[MO833] Paramount Iteration,7,40,0.110132,5.714014
[MO833] Paramount Iteration,0,41,0.190629,5.904852
[MO833] Paramount Iteration,2,41,0.190631,5.904779
[MO833] Paramount Iteration,1,41,0.190573,5.904849
[MO833] Paramount Iteration,3,41,0.190600,5.904781
[MO833] Paramount Iteration,6,41,0.190617,5.904621
[MO833] Paramount Iteration,4,41,0.190626,5.904264
[MO833] Paramount Iteration,7,41,0.190573,5.904648
[MO833] Paramount Iteration,5,41,0.190593,5.904283
[MO833] Paramount Iteration,2,42,0.110784,6.015583
[MO833] Paramount Iteration,0,42,0.110650,6.015669
[MO833] Paramount Iteration,3,42,0.110754,6.015587
[MO833] Paramount Iteration,6,42,0.110764,6.015443
[MO833] Paramount Iteration,1,42,0.110801,6.015664
[MO833] Paramount Iteration,4,42,0.110792,6.015079
[MO833] Paramount Iteration,7,42,0.110804,6.015471
[MO833] Paramount Iteration,5,42,0.110757,6.015097
[MO833] Paramount Iteration,0,43,0.110680,6.126369
[MO833] Paramount Iteration,6,43,0.110623,6.126121
[MO833] Paramount Iteration,1,43,0.110614,6.126364
[MO833] Paramount Iteration,2,43,0.110707,6.126309
[MO833] Paramount Iteration,4,43,0.110669,6.125766
[MO833] Paramount Iteration,7,43,0.110656,6.126149
[MO833] Paramount Iteration,3,43,0.110674,6.126309
[MO833] Paramount Iteration,5,43,0.110634,6.125784
[MO833] Paramount Iteration,0,44,0.192115,6.318503
[MO833] Paramount Iteration,2,44,0.192081,6.318411
[MO833] Paramount Iteration,6,44,0.192078,6.318256
[MO833] Paramount Iteration,1,44,0.192058,6.318495
[MO833] Paramount Iteration,3,44,0.192037,6.318413
[MO833] Paramount Iteration,4,44,0.192117,6.317901
[MO833] Paramount Iteration,7,44,0.192112,6.318284
[MO833] Paramount Iteration,5,44,0.192082,6.317919
[MO833] Paramount Iteration,0,45,0.109626,6.428185
[MO833] Paramount Iteration,1,45,0.109664,6.428180
[MO833] Paramount Iteration,2,45,0.109704,6.428133
[MO833] Paramount Iteration,4,45,0.109670,6.427589
[MO833] Paramount Iteration,6,45,0.109669,6.427978
[MO833] Paramount Iteration,3,45,0.109672,6.428135
[MO833] Paramount Iteration,5,45,0.109636,6.427607
[MO833] Paramount Iteration,7,45,0.109703,6.428006
[MO833] Paramount Iteration,0,46,0.110791,6.538997
[MO833] Paramount Iteration,1,46,0.110639,6.538993
[MO833] Paramount Iteration,2,46,0.110787,6.538940
[MO833] Paramount Iteration,4,46,0.110738,6.538390
[MO833] Paramount Iteration,3,46,0.110757,6.538943
[MO833] Paramount Iteration,5,46,0.110781,6.538408
[MO833] Paramount Iteration,6,46,0.110770,6.538805
[MO833] Paramount Iteration,7,46,0.110806,6.538833
[MO833] Paramount Iteration,4,47,0.192312,6.730766
[MO833] Paramount Iteration,0,47,0.192378,6.731430
[MO833] Paramount Iteration,2,47,0.192413,6.731375
[MO833] Paramount Iteration,5,47,0.192358,6.730787
[MO833] Paramount Iteration,6,47,0.192305,6.731170
[MO833] Paramount Iteration,1,47,0.192416,6.731422
[MO833] Paramount Iteration,3,47,0.192379,6.731375
[MO833] Paramount Iteration,7,47,0.192346,6.731203
[MO833] Paramount Iteration,0,48,0.110287,6.841787
[MO833] Paramount Iteration,1,48,0.110343,6.841782
[MO833] Paramount Iteration,2,48,0.110321,6.841714
[MO833] Paramount Iteration,4,48,0.110350,6.841177
[MO833] Paramount Iteration,6,48,0.110334,6.841560
[MO833] Paramount Iteration,3,48,0.110291,6.841717
[MO833] Paramount Iteration,5,48,0.110392,6.841195
[MO833] Paramount Iteration,7,48,0.110368,6.841588
[MO833] Paramount Iteration,0,49,0.110188,6.951995
[MO833] Paramount Iteration,4,49,0.110116,6.951350
[MO833] Paramount Iteration,6,49,0.110104,6.951715
[MO833] Paramount Iteration,1,49,0.110031,6.951988
[MO833] Paramount Iteration,2,49,0.110183,6.951918
[MO833] Paramount Iteration,5,49,0.110156,6.951370
[MO833] Paramount Iteration,7,49,0.110138,6.951745
[MO833] Paramount Iteration,3,49,0.110151,6.951918
[MO833] Paramount Iteration,1,50,0.197668,7.149676
[MO833] Paramount Iteration,2,50,0.197781,7.149720
[MO833] Paramount Iteration,3,50,0.197974,7.149958
[MO833] Paramount Iteration,4,50,0.198221,7.149640
[MO833] Paramount Iteration,5,50,0.198502,7.149894
[MO833] Paramount Iteration,6,50,0.198715,7.150501
[MO833] Paramount Iteration,7,50,0.198999,7.150764
[MO833] Paramount Iteration,0,50,0.199095,7.151162
[MO833] Paramount Iteration,0,51,0.109704,7.260900
[MO833] Paramount Iteration,4,51,0.110553,7.260239
[MO833] Paramount Iteration,1,51,0.111131,7.260893
[MO833] Paramount Iteration,2,51,0.111051,7.260859
[MO833] Paramount Iteration,5,51,0.110334,7.260262
[MO833] Paramount Iteration,6,51,0.110067,7.260640
[MO833] Paramount Iteration,3,51,0.110872,7.260859
[MO833] Paramount Iteration,7,51,0.109891,7.260670
[MO833] Paramount Iteration,2,52,0.110834,7.371709
[MO833] Paramount Iteration,4,52,0.110854,7.371155
[MO833] Paramount Iteration,6,52,0.110811,7.371505
[MO833] Paramount Iteration,0,52,0.110902,7.371823
[MO833] Paramount Iteration,3,52,0.110801,7.371709
[MO833] Paramount Iteration,5,52,0.110900,7.371178
[MO833] Paramount Iteration,7,52,0.110845,7.371533
[MO833] Paramount Iteration,1,52,0.110752,7.371817
[MO833] Paramount Iteration,0,53,0.192032,7.563927
[MO833] Paramount Iteration,1,53,0.191963,7.563923
[MO833] Paramount Iteration,2,53,0.192117,7.563843
[MO833] Paramount Iteration,4,53,0.192095,7.563310
[MO833] Paramount Iteration,6,53,0.192110,7.563672
[MO833] Paramount Iteration,3,53,0.192088,7.563846
[MO833] Paramount Iteration,5,53,0.192136,7.563328
[MO833] Paramount Iteration,7,53,0.192144,7.563700
[MO833] Paramount Iteration,0,54,0.110398,7.674382
[MO833] Paramount Iteration,4,54,0.110345,7.673714
[MO833] Paramount Iteration,6,54,0.110363,7.674088
[MO833] Paramount Iteration,1,54,0.110438,7.674374
[MO833] Paramount Iteration,2,54,0.110411,7.674314
[MO833] Paramount Iteration,5,54,0.110386,7.673734
[MO833] Paramount Iteration,7,54,0.110401,7.674121
[MO833] Paramount Iteration,3,54,0.110452,7.674315
[MO833] Paramount Iteration,0,55,0.110150,7.784612
[MO833] Paramount Iteration,1,55,0.110213,7.784607
[MO833] Paramount Iteration,2,55,0.110226,7.784559
[MO833] Paramount Iteration,4,55,0.110215,7.783996
[MO833] Paramount Iteration,3,55,0.110195,7.784562
[MO833] Paramount Iteration,5,55,0.110259,7.784014
[MO833] Paramount Iteration,6,55,0.110236,7.784385
[MO833] Paramount Iteration,7,55,0.110277,7.784413
[MO833] Paramount Iteration,0,56,0.191477,7.976148
[MO833] Paramount Iteration,1,56,0.191521,7.976143
[MO833] Paramount Iteration,2,56,0.191497,7.976074
[MO833] Paramount Iteration,4,56,0.191463,7.975521
[MO833] Paramount Iteration,3,56,0.191469,7.976079
[MO833] Paramount Iteration,5,56,0.191503,7.975539
[MO833] Paramount Iteration,6,56,0.191466,7.975901
[MO833] Paramount Iteration,7,56,0.191497,7.975928
[MO833] Paramount Iteration,0,57,0.110298,8.086465
[MO833] Paramount Iteration,1,57,0.110262,8.086460
[MO833] Paramount Iteration,2,57,0.110303,8.086395
[MO833] Paramount Iteration,4,57,0.110242,8.085824
[MO833] Paramount Iteration,6,57,0.110259,8.086218
[MO833] Paramount Iteration,3,57,0.110273,8.086400
[MO833] Paramount Iteration,5,57,0.110284,8.085842
[MO833] Paramount Iteration,7,57,0.110297,8.086246
[MO833] Paramount Iteration,0,58,0.109603,8.196089
[MO833] Paramount Iteration,2,58,0.109528,8.195983
[MO833] Paramount Iteration,1,58,0.109562,8.196083
[MO833] Paramount Iteration,3,58,0.109569,8.195985
[MO833] Paramount Iteration,4,58,0.109576,8.195459
[MO833] Paramount Iteration,6,58,0.109515,8.195796
[MO833] Paramount Iteration,5,58,0.109616,8.195477
[MO833] Paramount Iteration,7,58,0.109554,8.195824
[MO833] Paramount Iteration,0,59,0.191340,8.387448
[MO833] Paramount Iteration,4,59,0.191271,8.386751
[MO833] Paramount Iteration,6,59,0.191286,8.387135
[MO833] Paramount Iteration,1,59,0.191277,8.387442
[MO833] Paramount Iteration,2,59,0.191372,8.387374
[MO833] Paramount Iteration,5,59,0.191242,8.386775
[MO833] Paramount Iteration,7,59,0.191323,8.387167
[MO833] Paramount Iteration,3,59,0.191339,8.387374
[MO833] Paramount Iteration,0,60,0.162078,8.549686
[MO833] Paramount Iteration,1,60,0.162216,8.549678
[MO833] Paramount Iteration,2,60,0.162227,8.549623
[MO833] Paramount Iteration,4,60,0.162260,8.549030
[MO833] Paramount Iteration,7,60,0.162231,8.549415
[MO833] Paramount Iteration,6,60,0.162241,8.549432
[MO833] Paramount Iteration,5,60,0.162408,8.549231
[MO833] Paramount Iteration,3,60,0.162396,8.549827
[MO833] Paramount Iteration,0,61,0.111252,8.660954
[MO833] Paramount Iteration,2,61,0.111192,8.660835
[MO833] Paramount Iteration,6,61,0.111205,8.660643
[MO833] Paramount Iteration,1,61,0.111211,8.660949
[MO833] Paramount Iteration,3,61,0.110981,8.660837
[MO833] Paramount Iteration,4,61,0.111257,8.660310
[MO833] Paramount Iteration,7,61,0.111137,8.660671
[MO833] Paramount Iteration,5,61,0.111056,8.660328
[MO833] Paramount Iteration,0,62,0.190406,8.851380
[MO833] Paramount Iteration,1,62,0.190257,8.851375
[MO833] Paramount Iteration,2,62,0.190449,8.851302
[MO833] Paramount Iteration,4,62,0.190358,8.850743
[MO833] Paramount Iteration,6,62,0.190451,8.851114
[MO833] Paramount Iteration,3,62,0.190425,8.851309
[MO833] Paramount Iteration,5,62,0.190412,8.850762
[MO833] Paramount Iteration,7,62,0.190407,8.851140
[MO833] Paramount Iteration,2,63,0.109898,8.961222
[MO833] Paramount Iteration,4,63,0.109888,8.960651
[MO833] Paramount Iteration,6,63,0.109811,8.960979
[MO833] Paramount Iteration,0,63,0.109953,8.961351
[MO833] Paramount Iteration,3,63,0.109868,8.961224
[MO833] Paramount Iteration,5,63,0.109858,8.960672
[MO833] Paramount Iteration,7,63,0.109850,8.961012
[MO833] Paramount Iteration,1,63,0.109918,8.961467
[MO833] Paramount Iteration,0,64,0.109305,9.070718
[MO833] Paramount Iteration,2,64,0.109366,9.070609
[MO833] Paramount Iteration,6,64,0.109400,9.070399
[MO833] Paramount Iteration,1,64,0.109201,9.070716
[MO833] Paramount Iteration,3,64,0.109342,9.070617
[MO833] Paramount Iteration,4,64,0.109411,9.070083
[MO833] Paramount Iteration,7,64,0.109360,9.070427
[MO833] Paramount Iteration,5,64,0.109374,9.070101
[MO833] Paramount Iteration,0,65,0.191080,9.261818
[MO833] Paramount Iteration,1,65,0.190918,9.261815
[MO833] Paramount Iteration,2,65,0.191110,9.261739
[MO833] Paramount Iteration,4,65,0.191034,9.261177
[MO833] Paramount Iteration,3,65,0.191071,9.261742
[MO833] Paramount Iteration,5,65,0.191074,9.261195
[MO833] Paramount Iteration,6,65,0.191091,9.261545
[MO833] Paramount Iteration,7,65,0.191128,9.261574
[MO833] Paramount Iteration,0,66,0.111291,9.373168
[MO833] Paramount Iteration,4,66,0.111256,9.372496
[MO833] Paramount Iteration,6,66,0.111234,9.372837
[MO833] Paramount Iteration,1,66,0.111330,9.373160
[MO833] Paramount Iteration,2,66,0.111328,9.373085
[MO833] Paramount Iteration,5,66,0.111298,9.372514
[MO833] Paramount Iteration,7,66,0.111273,9.372867
[MO833] Paramount Iteration,3,66,0.111295,9.373085
[MO833] Paramount Iteration,0,67,0.110697,9.483946
[MO833] Paramount Iteration,2,67,0.110721,9.483825
[MO833] Paramount Iteration,6,67,0.110722,9.483615
[MO833] Paramount Iteration,1,67,0.110760,9.483940
[MO833] Paramount Iteration,3,67,0.110691,9.483827
[MO833] Paramount Iteration,4,67,0.110741,9.483298
[MO833] Paramount Iteration,7,67,0.110757,9.483643
[MO833] Paramount Iteration,5,67,0.110783,9.483316
[MO833] Paramount Iteration,0,68,0.192609,9.676614
[MO833] Paramount Iteration,1,68,0.192650,9.676606
[MO833] Paramount Iteration,4,68,0.192555,9.675928
[MO833] Paramount Iteration,6,68,0.192651,9.676287
[MO833] Paramount Iteration,2,68,0.192726,9.676569
[MO833] Paramount Iteration,5,68,0.192599,9.675949
[MO833] Paramount Iteration,7,68,0.192614,9.676321
[MO833] Paramount Iteration,3,68,0.192695,9.676569
[MO833] Paramount Iteration,4,69,0.110862,9.786864
[MO833] Paramount Iteration,2,69,0.110888,9.787475
[MO833] Paramount Iteration,5,69,0.110906,9.786883
[MO833] Paramount Iteration,6,69,0.110918,9.787229
[MO833] Paramount Iteration,3,69,0.110854,9.787475
[MO833] Paramount Iteration,7,69,0.110876,9.787257
[MO833] Paramount Iteration,1,69,0.110886,9.787671
[MO833] Paramount Iteration,0,69,0.111112,9.787745
[MO833] Paramount Iteration,0,70,0.150313,9.938103
[MO833] Paramount Iteration,2,70,0.150485,9.937981
[MO833] Paramount Iteration,4,70,0.150478,9.937403
[MO833] Paramount Iteration,6,70,0.150478,9.937726
[MO833] Paramount Iteration,1,70,0.150379,9.938095
[MO833] Paramount Iteration,3,70,0.150452,9.937983
[MO833] Paramount Iteration,5,70,0.150522,9.937426
[MO833] Paramount Iteration,7,70,0.150433,9.937751
[MO833] Paramount Iteration,0,71,0.192274,10.130448
[MO833] Paramount Iteration,4,71,0.192282,10.129749
[MO833] Paramount Iteration,6,71,0.192361,10.130101
[MO833] Paramount Iteration,1,71,0.192332,10.130443
[MO833] Paramount Iteration,2,71,0.192367,10.130368
[MO833] Paramount Iteration,5,71,0.192335,10.129774
[MO833] Paramount Iteration,7,71,0.192315,10.130132
[MO833] Paramount Iteration,3,71,0.192331,10.130368
[MO833] Paramount Iteration,0,72,0.110032,10.240559
[MO833] Paramount Iteration,1,72,0.110091,10.240552
[MO833] Paramount Iteration,2,72,0.110084,10.240475
[MO833] Paramount Iteration,4,72,0.110064,10.239877
[MO833] Paramount Iteration,6,72,0.110099,10.240223
[MO833] Paramount Iteration,3,72,0.110049,10.240475
[MO833] Paramount Iteration,5,72,0.110107,10.239895
[MO833] Paramount Iteration,7,72,0.110035,10.240252
[MO833] Paramount Iteration,0,73,0.111393,10.351971
[MO833] Paramount Iteration,4,73,0.111321,10.351266
[MO833] Paramount Iteration,1,73,0.111252,10.351966
[MO833] Paramount Iteration,2,73,0.111396,10.351891
[MO833] Paramount Iteration,5,73,0.111367,10.351288
[MO833] Paramount Iteration,6,73,0.111380,10.351625
[MO833] Paramount Iteration,3,73,0.111365,10.351893
[MO833] Paramount Iteration,7,73,0.111340,10.351658
[MO833] Paramount Iteration,0,74,0.190782,10.542831
[MO833] Paramount Iteration,4,74,0.190852,10.542139
[MO833] Paramount Iteration,6,74,0.190808,10.542458
[MO833] Paramount Iteration,1,74,0.190838,10.542822
[MO833] Paramount Iteration,2,74,0.190805,10.542718
[MO833] Paramount Iteration,5,74,0.190817,10.542157
[MO833] Paramount Iteration,7,74,0.190764,10.542486
[MO833] Paramount Iteration,3,74,0.190773,10.542718
[MO833] Paramount Iteration,0,75,0.110332,10.653234
[MO833] Paramount Iteration,4,75,0.110332,10.652533
[MO833] Paramount Iteration,6,75,0.110377,10.652853
[MO833] Paramount Iteration,1,75,0.110385,10.653226
[MO833] Paramount Iteration,2,75,0.110378,10.653124
[MO833] Paramount Iteration,5,75,0.110375,10.652553
[MO833] Paramount Iteration,7,75,0.110336,10.652882
[MO833] Paramount Iteration,3,75,0.110346,10.653124
[MO833] Paramount Iteration,0,76,0.109469,10.762777
[MO833] Paramount Iteration,2,76,0.109515,10.762658
[MO833] Paramount Iteration,4,76,0.109476,10.762071
[MO833] Paramount Iteration,6,76,0.109536,10.762407
[MO833] Paramount Iteration,1,76,0.109522,10.762769
[MO833] Paramount Iteration,3,76,0.109482,10.762658
[MO833] Paramount Iteration,5,76,0.109520,10.762091
[MO833] Paramount Iteration,7,76,0.109497,10.762435
[MO833] Paramount Iteration,4,77,0.191005,10.953137
[MO833] Paramount Iteration,0,77,0.191058,10.953856
[MO833] Paramount Iteration,5,77,0.191051,10.953159
[MO833] Paramount Iteration,1,77,0.190892,10.953849
[MO833] Paramount Iteration,2,77,0.191109,10.953785
[MO833] Paramount Iteration,6,77,0.191080,10.953509
[MO833] Paramount Iteration,3,77,0.191079,10.953788
[MO833] Paramount Iteration,7,77,0.191043,10.953542
[MO833] Paramount Iteration,0,78,0.110477,11.064410
[MO833] Paramount Iteration,2,78,0.110465,11.064273
[MO833] Paramount Iteration,6,78,0.110500,11.064036
[MO833] Paramount Iteration,1,78,0.110537,11.064407
[MO833] Paramount Iteration,3,78,0.110434,11.064276
[MO833] Paramount Iteration,4,78,0.110586,11.063743
[MO833] Paramount Iteration,7,78,0.110459,11.064064
[MO833] Paramount Iteration,5,78,0.110551,11.063760
[MO833] Paramount Iteration,2,79,0.110469,11.174762
[MO833] Paramount Iteration,4,79,0.110436,11.174198
[MO833] Paramount Iteration,6,79,0.110438,11.174496
[MO833] Paramount Iteration,0,79,0.110453,11.174926
[MO833] Paramount Iteration,3,79,0.110436,11.174762
[MO833] Paramount Iteration,5,79,0.110405,11.174220
[MO833] Paramount Iteration,7,79,0.110397,11.174525
[MO833] Paramount Iteration,1,79,0.110498,11.174920
[MO833] Paramount Iteration,0,80,0.230043,11.405034
[MO833] Paramount Iteration,2,80,0.230118,11.404903
[MO833] Paramount Iteration,4,80,0.230067,11.404323
[MO833] Paramount Iteration,6,80,0.230119,11.404639
[MO833] Paramount Iteration,1,80,0.229925,11.405024
[MO833] Paramount Iteration,3,80,0.230084,11.404902
[MO833] Paramount Iteration,5,80,0.230103,11.404339
[MO833] Paramount Iteration,7,80,0.230063,11.404656
[MO833] Paramount Iteration,0,81,0.111089,11.516200
[MO833] Paramount Iteration,1,81,0.111153,11.516195
[MO833] Paramount Iteration,2,81,0.111190,11.516110
[MO833] Paramount Iteration,4,81,0.111121,11.515508
[MO833] Paramount Iteration,6,81,0.111198,11.515845
[MO833] Paramount Iteration,3,81,0.111153,11.516110
[MO833] Paramount Iteration,5,81,0.111170,11.515526
[MO833] Paramount Iteration,7,81,0.111149,11.515875
[MO833] Paramount Iteration,2,82,0.110633,11.626766
[MO833] Paramount Iteration,4,82,0.110647,11.626216
[MO833] Paramount Iteration,6,82,0.110650,11.626514
[MO833] Paramount Iteration,0,82,0.110653,11.626911
[MO833] Paramount Iteration,3,82,0.110602,11.626769
[MO833] Paramount Iteration,5,82,0.110688,11.626234
[MO833] Paramount Iteration,7,82,0.110609,11.626542
[MO833] Paramount Iteration,1,82,0.110694,11.626903
[MO833] Paramount Iteration,2,83,0.191355,11.818144
[MO833] Paramount Iteration,6,83,0.191284,11.817853
[MO833] Paramount Iteration,0,83,0.191289,11.818297
[MO833] Paramount Iteration,3,83,0.191322,11.818145
[MO833] Paramount Iteration,4,83,0.191296,11.817571
[MO833] Paramount Iteration,7,83,0.191322,11.817885
[MO833] Paramount Iteration,5,83,0.191341,11.817594
[MO833] Paramount Iteration,1,83,0.191226,11.818291
[MO833] Paramount Iteration,0,84,0.111105,11.929467
[MO833] Paramount Iteration,4,84,0.111149,11.928742
[MO833] Paramount Iteration,6,84,0.111160,11.929066
[MO833] Paramount Iteration,1,84,0.110984,11.929462
[MO833] Paramount Iteration,2,84,0.111193,11.929361
[MO833] Paramount Iteration,5,84,0.111119,11.928764
[MO833] Paramount Iteration,7,84,0.111195,11.929096
[MO833] Paramount Iteration,3,84,0.111158,11.929361
[MO833] Paramount Iteration,0,85,0.111433,12.040978
[MO833] Paramount Iteration,1,85,0.111491,12.040972
[MO833] Paramount Iteration,2,85,0.111483,12.040864
[MO833] Paramount Iteration,4,85,0.111533,12.040297
[MO833] Paramount Iteration,6,85,0.111506,12.040592
[MO833] Paramount Iteration,3,85,0.111448,12.040864
[MO833] Paramount Iteration,5,85,0.111498,12.040316
[MO833] Paramount Iteration,7,85,0.111466,12.040620
[MO833] Paramount Iteration,2,86,0.191194,12.232119
[MO833] Paramount Iteration,4,86,0.191218,12.231535
[MO833] Paramount Iteration,6,86,0.191209,12.231820
[MO833] Paramount Iteration,0,86,0.191229,12.232268
[MO833] Paramount Iteration,3,86,0.191235,12.232120
[MO833] Paramount Iteration,5,86,0.191186,12.231556
[MO833] Paramount Iteration,7,86,0.191172,12.231852
[MO833] Paramount Iteration,1,86,0.191271,12.232261
[MO833] Paramount Iteration,0,87,0.111744,12.344081
[MO833] Paramount Iteration,4,87,0.111750,12.343348
[MO833] Paramount Iteration,1,87,0.111663,12.344075
[MO833] Paramount Iteration,2,87,0.111791,12.343972
[MO833] Paramount Iteration,5,87,0.111795,12.343369
[MO833] Paramount Iteration,6,87,0.111834,12.343673
[MO833] Paramount Iteration,3,87,0.111836,12.343974
[MO833] Paramount Iteration,7,87,0.111796,12.343706
[MO833] Paramount Iteration,0,88,0.110887,12.455041
[MO833] Paramount Iteration,2,88,0.110896,12.454888
[MO833] Paramount Iteration,6,88,0.110928,12.454624
[MO833] Paramount Iteration,1,88,0.110949,12.455041
[MO833] Paramount Iteration,3,88,0.110866,12.454890
[MO833] Paramount Iteration,4,88,0.110990,12.454359
[MO833] Paramount Iteration,7,88,0.110887,12.454653
[MO833] Paramount Iteration,5,88,0.110956,12.454377
[MO833] Paramount Iteration,0,89,0.193620,12.648683
[MO833] Paramount Iteration,1,89,0.193463,12.648676
[MO833] Paramount Iteration,2,89,0.193654,12.648565
[MO833] Paramount Iteration,4,89,0.193613,12.647992
[MO833] Paramount Iteration,6,89,0.193654,12.648299
[MO833] Paramount Iteration,3,89,0.193621,12.648567
[MO833] Paramount Iteration,5,89,0.193578,12.648010
[MO833] Paramount Iteration,7,89,0.193612,12.648327
[MO833] Paramount Iteration,0,90,0.151584,12.800324
[MO833] Paramount Iteration,2,90,0.151581,12.800169
[MO833] Paramount Iteration,6,90,0.151591,12.799910
[MO833] Paramount Iteration,1,90,0.151619,12.800313
[MO833] Paramount Iteration,3,90,0.151552,12.800175
[MO833] Paramount Iteration,4,90,0.151587,12.799641
[MO833] Paramount Iteration,7,90,0.151619,12.800010
[MO833] Paramount Iteration,5,90,0.151628,12.799659
[MO833] Paramount Iteration,0,91,0.111762,12.912101
[MO833] Paramount Iteration,4,91,0.111656,12.911367
[MO833] Paramount Iteration,1,91,0.111580,12.912093
[MO833] Paramount Iteration,2,91,0.111783,12.911974
[MO833] Paramount Iteration,5,91,0.111708,12.911388
[MO833] Paramount Iteration,6,91,0.111737,12.911669
[MO833] Paramount Iteration,3,91,0.111745,12.911975
[MO833] Paramount Iteration,7,91,0.111659,12.911699
[MO833] Paramount Iteration,0,92,0.194279,13.106455
[MO833] Paramount Iteration,1,92,0.194337,13.106449
[MO833] Paramount Iteration,2,92,0.194329,13.106327
[MO833] Paramount Iteration,4,92,0.194326,13.105755
[MO833] Paramount Iteration,6,92,0.194372,13.106063
[MO833] Paramount Iteration,3,92,0.194297,13.106330
[MO833] Paramount Iteration,5,92,0.194368,13.105773
[MO833] Paramount Iteration,7,92,0.194328,13.106091
[MO833] Paramount Iteration,0,93,0.112112,13.218627
[MO833] Paramount Iteration,2,93,0.112105,13.218454
[MO833] Paramount Iteration,6,93,0.112091,13.218180
[MO833] Paramount Iteration,1,93,0.112155,13.218621
[MO833] Paramount Iteration,3,93,0.112072,13.218456
[MO833] Paramount Iteration,4,93,0.112160,13.217935
[MO833] Paramount Iteration,7,93,0.112049,13.218209
[MO833] Paramount Iteration,5,93,0.112126,13.217953
[MO833] Paramount Iteration,0,94,0.110921,13.329604
[MO833] Paramount Iteration,4,94,0.110905,13.328858
[MO833] Paramount Iteration,6,94,0.110965,13.329168
[MO833] Paramount Iteration,1,94,0.110957,13.329597
[MO833] Paramount Iteration,2,94,0.111012,13.329489
[MO833] Paramount Iteration,5,94,0.110875,13.328879
[MO833] Paramount Iteration,7,94,0.110927,13.329200
[MO833] Paramount Iteration,3,94,0.110978,13.329491
[MO833] Paramount Iteration,0,95,0.194616,13.524300
[MO833] Paramount Iteration,2,95,0.194648,13.524157
[MO833] Paramount Iteration,4,95,0.194664,13.523544
[MO833] Paramount Iteration,6,95,0.194650,13.523840
[MO833] Paramount Iteration,1,95,0.194677,13.524292
[MO833] Paramount Iteration,3,95,0.194591,13.524157
[MO833] Paramount Iteration,5,95,0.194611,13.523564
[MO833] Paramount Iteration,7,95,0.194609,13.523871
[MO833] Paramount Iteration,0,96,0.113775,13.638149
[MO833] Paramount Iteration,2,96,0.113810,13.637991
[MO833] Paramount Iteration,4,96,0.113878,13.637447
[MO833] Paramount Iteration,6,96,0.113846,13.637709
[MO833] Paramount Iteration,1,96,0.113831,13.638143
[MO833] Paramount Iteration,3,96,0.113777,13.637993
[MO833] Paramount Iteration,5,96,0.113844,13.637465
[MO833] Paramount Iteration,7,96,0.113803,13.637737
[MO833] Paramount Iteration,2,97,0.113483,13.751493
[MO833] Paramount Iteration,6,97,0.113439,13.751173
[MO833] Paramount Iteration,0,97,0.113512,13.751684
[MO833] Paramount Iteration,3,97,0.113451,13.751493
[MO833] Paramount Iteration,4,97,0.113461,13.750928
[MO833] Paramount Iteration,7,97,0.113398,13.751204
[MO833] Paramount Iteration,5,97,0.113434,13.750952
[MO833] Paramount Iteration,1,97,0.113468,13.751805
[MO833] Paramount Iteration,0,98,0.194893,13.946644
[MO833] Paramount Iteration,1,98,0.194777,13.946638
[MO833] Paramount Iteration,2,98,0.194987,13.946502
[MO833] Paramount Iteration,4,98,0.194980,13.945933
[MO833] Paramount Iteration,3,98,0.194972,13.946523
[MO833] Paramount Iteration,5,98,0.194945,13.945951
[MO833] Paramount Iteration,6,98,0.195029,13.946223
[MO833] Paramount Iteration,7,98,0.194984,13.946252
[MO833] Paramount Iteration,0,99,0.114110,14.060813
[MO833] Paramount Iteration,4,99,0.114105,14.060059
[MO833] Paramount Iteration,6,99,0.114056,14.060336
[MO833] Paramount Iteration,1,99,0.114148,14.060805
[MO833] Paramount Iteration,2,99,0.114142,14.060670
[MO833] Paramount Iteration,5,99,0.114072,14.060079
[MO833] Paramount Iteration,7,99,0.114095,14.060368
[MO833] Paramount Iteration,3,99,0.114092,14.060670
     100    1727.5562    1930.0116     3712.096    3597.8437         3844          248   -156.58198 
[MO833] Paramount Iteration,1,100,0.180122,14.241009
[MO833] Paramount Iteration,2,100,0.180188,14.240880
[MO833] Paramount Iteration,4,100,0.180211,14.240292
[MO833] Paramount Iteration,3,100,0.180153,14.240880
[MO833] Paramount Iteration,5,100,0.180176,14.240310
[MO833] Paramount Iteration,6,100,0.180203,14.240598
[MO833] Paramount Iteration,7,100,0.180238,14.240626
[MO833] Paramount Iteration,0,100,0.180358,14.241195
Loop time of 13.7624 on 8 procs for 100 steps with 24000 atoms

Performance: 1.256 ns/day, 19.114 hours/ns, 7.266 timesteps/s
92.5% CPU use with 8 MPI tasks x 1 OpenMP threads

MPI task timing breakdown:
Section |  min time  |  avg time  |  max time  |%varavg| %total
---------------------------------------------------------------
Pair    | 7.0448     | 7.7871     | 8.5976     |  25.5 | 56.58
Bond    | 0.00017381 | 0.00019255 | 0.00021315 |   0.0 |  0.00
Kspace  | 2.3029     | 3.1134     | 3.8558     |  40.3 | 22.62
Neigh   | 2.4286     | 2.4302     | 2.4316     |   0.1 | 17.66
Comm    | 0.19881    | 0.20383    | 0.2077     |   0.7 |  1.48
Output  | 0.018077   | 0.02036    | 0.021454   |   0.7 |  0.15
Modify  | 0.17228    | 0.175      | 0.17979    |   0.7 |  1.27
Other   |            | 0.03227    |            |       |  0.23

Nlocal:    3000 ave 3011 max 2986 min
Histogram: 1 0 0 0 2 1 1 2 0 1
Nghost:    14891.4 ave 14909 max 14883 min
Histogram: 1 2 2 1 1 0 0 0 0 1
Neighs:    2.04102e+06 ave 2.25439e+06 max 1.82887e+06 min
Histogram: 4 0 0 0 0 0 0 0 0 4

Total # of neighbors = 16328128
Ave neighs/atom = 680.339
Ave special neighs/atom = 2
Neighbor list builds = 31
Dangerous builds = 0
Total wall time: 0:00:14
[MO833] Beta,0,0.049495
[MO833] PI avg,0,0.137625,100
[MO833] Total time,14.443657
[MO833] Beta,1,0.049510
[MO833] PI avg,1,0.137623,100
[MO833] Beta,2,0.049508
[MO833] PI avg,2,0.137622,100
[MO833] Beta,5,0.049473
[MO833] PI avg,5,0.137621,100
[MO833] Beta,4,0.049481
[MO833] PI avg,4,0.137621,100
[MO833] Beta,7,0.049512
[MO833] PI avg,7,0.137620,100
[MO833] Beta,3,0.049517
[MO833] PI avg,3,0.137622,100
[MO833] Beta,6,0.049517
[MO833] PI avg,6,0.137620,100
