LAMMPS (3 Mar 2020)
OMP_NUM_THREADS environment is not set. Defaulting to 1 thread. (src/comm.cpp:94)
  using 1 OpenMP thread(s) per MPI task
Reading data file ...
  orthogonal box = (-16.796 -16.796 -16.796) to (16.796 16.796 16.796)
  2 by 2 by 2 MPI processor grid
  reading atoms ...
  32000 atoms
  reading velocities ...
  32000 velocities
  scanning bonds ...
  1 = max bonds/atom
  reading bonds ...
  31680 bonds
Finding 1-2 1-3 1-4 neighbors ...
  special bond factors lj:   0          1          1         
  special bond factors coul: 0          1          1         
  2 = max # of 1-2 neighbors
  2 = max # of special neighbors
  special bonds CPU = 0.00537133 secs
  read_data CPU = 0.142949 secs
Replicating atoms ...
  orthogonal box = (-16.796 -16.796 -16.796) to (117.572 117.572 117.572)
  2 by 2 by 2 MPI processor grid
  2048000 atoms
  2027520 bonds
Finding 1-2 1-3 1-4 neighbors ...
  special bond factors lj:   0          1          1         
  special bond factors coul: 0          1          1         
  2 = max # of 1-2 neighbors
  2 = max # of special neighbors
  special bonds CPU = 0.149662 secs
  replicate CPU = 0.256814 secs
Neighbor list info ...
  update every 1 steps, delay 1 steps, check yes
  max neighbors/atom: 2000, page size: 100000
  master list distance cutoff = 1.52
  ghost atom cutoff = 1.52
  binsize = 0.76, bins = 177 177 177
  1 neighbor lists, perpetual/occasional/extra = 1 0 0
  (1) pair lj/cut, perpetual
      attributes: half, newton on
      pair build: half/bin/newton
      stencil: half/bin/3d/newton
      bin: standard
Setting up Verlet run ...
  Unit style    : lj
  Current step  : 0
  Time step     : 0.012
WARNING: Communication cutoff 1.52 is shorter than a bond length based estimate of 1.855. This may lead to errors. (src/comm.cpp:686)
Per MPI rank memory allocation (min/avg/max) = 92.32 | 92.32 | 92.32 Mbytes
Step Temp E_pair E_mol TotEng Press 
       0   0.97026787   0.44484087    20.494523    22.394765    4.6721833 
[MO833] Paramount Iteration,5,1,0.073299,1.099146
[MO833] Paramount Iteration,3,1,0.073428,1.099228
[MO833] Paramount Iteration,4,1,0.073527,1.099384
[MO833] Paramount Iteration,2,1,0.073915,1.099696
[MO833] Paramount Iteration,1,1,0.073995,1.099921
[MO833] Paramount Iteration,7,1,0.074158,1.100045
[MO833] Paramount Iteration,6,1,0.074204,1.100091
[MO833] Paramount Iteration,0,1,0.074507,1.100434
[MO833] Paramount Iteration,4,2,0.075330,1.174772
[MO833] Paramount Iteration,5,2,0.075518,1.174751
[MO833] Paramount Iteration,2,2,0.075106,1.174843
[MO833] Paramount Iteration,3,2,0.075644,1.174963
[MO833] Paramount Iteration,1,2,0.075305,1.175293
[MO833] Paramount Iteration,0,2,0.074885,1.175391
[MO833] Paramount Iteration,6,2,0.075182,1.175291
[MO833] Paramount Iteration,7,2,0.075354,1.175501
[MO833] Paramount Iteration,4,3,0.074362,1.249148
[MO833] Paramount Iteration,5,3,0.074299,1.249127
[MO833] Paramount Iteration,2,3,0.074589,1.249460
[MO833] Paramount Iteration,1,3,0.074353,1.249714
[MO833] Paramount Iteration,3,3,0.074593,1.249587
[MO833] Paramount Iteration,0,3,0.074474,1.249913
[MO833] Paramount Iteration,6,3,0.074564,1.249889
[MO833] Paramount Iteration,7,3,0.074672,1.250215
[MO833] Paramount Iteration,3,4,0.377392,1.627011
[MO833] Paramount Iteration,1,4,0.377542,1.627311
[MO833] Paramount Iteration,4,4,0.377984,1.627144
[MO833] Paramount Iteration,5,4,0.377925,1.627124
[MO833] Paramount Iteration,0,4,0.377484,1.627475
[MO833] Paramount Iteration,2,4,0.377763,1.627253
[MO833] Paramount Iteration,7,4,0.377194,1.627458
[MO833] Paramount Iteration,6,4,0.377583,1.627506
[MO833] Paramount Iteration,4,5,0.081007,1.708166
[MO833] Paramount Iteration,5,5,0.081097,1.708300
[MO833] Paramount Iteration,0,5,0.080929,1.708512
[MO833] Paramount Iteration,3,5,0.081198,1.708285
[MO833] Paramount Iteration,1,5,0.081188,1.708559
[MO833] Paramount Iteration,2,5,0.081055,1.708328
[MO833] Paramount Iteration,7,5,0.081383,1.708933
[MO833] Paramount Iteration,6,5,0.081472,1.708986
[MO833] Paramount Iteration,0,6,0.081471,1.790118
[MO833] Paramount Iteration,1,6,0.081789,1.790357
[MO833] Paramount Iteration,4,6,0.082098,1.790293
[MO833] Paramount Iteration,3,6,0.081945,1.790298
[MO833] Paramount Iteration,5,6,0.082083,1.790423
[MO833] Paramount Iteration,2,6,0.082053,1.790418
[MO833] Paramount Iteration,6,6,0.081647,1.790642
[MO833] Paramount Iteration,7,6,0.081592,1.790612
[MO833] Paramount Iteration,0,7,0.082456,1.872690
[MO833] Paramount Iteration,3,7,0.082159,1.872545
[MO833] Paramount Iteration,4,7,0.082263,1.872588
[MO833] Paramount Iteration,5,7,0.082371,1.872834
[MO833] Paramount Iteration,1,7,0.082623,1.873034
[MO833] Paramount Iteration,2,7,0.082517,1.872955
[MO833] Paramount Iteration,7,7,0.082924,1.873623
[MO833] Paramount Iteration,6,7,0.083046,1.873696
[MO833] Paramount Iteration,3,8,0.388390,2.261013
[MO833] Paramount Iteration,5,8,0.388272,2.261148
[MO833] Paramount Iteration,1,8,0.388311,2.261379
[MO833] Paramount Iteration,2,8,0.388404,2.261382
[MO833] Paramount Iteration,4,8,0.389054,2.261672
[MO833] Paramount Iteration,0,8,0.389311,2.262033
[MO833] Paramount Iteration,7,8,0.388251,2.261958
[MO833] Paramount Iteration,6,8,0.388284,2.262014
[MO833] Paramount Iteration,3,9,0.083123,2.344213
[MO833] Paramount Iteration,2,9,0.082938,2.344340
[MO833] Paramount Iteration,1,9,0.083227,2.344668
[MO833] Paramount Iteration,0,9,0.082721,2.344774
[MO833] Paramount Iteration,5,9,0.083434,2.344667
[MO833] Paramount Iteration,6,9,0.082814,2.344836
[MO833] Paramount Iteration,4,9,0.083046,2.344741
[MO833] Paramount Iteration,7,9,0.082955,2.344998
[MO833] Paramount Iteration,0,10,0.082873,2.427665
[MO833] Paramount Iteration,3,10,0.083159,2.427444
[MO833] Paramount Iteration,2,10,0.083092,2.427452
[MO833] Paramount Iteration,1,10,0.083088,2.427815
[MO833] Paramount Iteration,4,10,0.082996,2.427745
[MO833] Paramount Iteration,5,10,0.083077,2.427832
[MO833] Paramount Iteration,6,10,0.083284,2.428154
[MO833] Paramount Iteration,7,10,0.083246,2.428312
[MO833] Paramount Iteration,3,11,0.083617,2.511132
[MO833] Paramount Iteration,0,11,0.083860,2.511557
[MO833] Paramount Iteration,1,11,0.083872,2.511730
[MO833] Paramount Iteration,4,11,0.084030,2.511807
[MO833] Paramount Iteration,2,11,0.084292,2.511752
[MO833] Paramount Iteration,5,11,0.083910,2.511770
[MO833] Paramount Iteration,7,11,0.083711,2.512100
[MO833] Paramount Iteration,6,11,0.084175,2.512365
[MO833] Paramount Iteration,2,12,0.397266,2.909041
[MO833] Paramount Iteration,3,12,0.397851,2.909063
[MO833] Paramount Iteration,0,12,0.397962,2.909544
[MO833] Paramount Iteration,1,12,0.397865,2.909635
[MO833] Paramount Iteration,4,12,0.397599,2.909414
[MO833] Paramount Iteration,5,12,0.397566,2.909421
[MO833] Paramount Iteration,6,12,0.397168,2.909555
[MO833] Paramount Iteration,7,12,0.397642,2.909828
[MO833] Paramount Iteration,3,13,0.084303,2.993436
[MO833] Paramount Iteration,2,13,0.084436,2.993497
[MO833] Paramount Iteration,4,13,0.084255,2.993699
[MO833] Paramount Iteration,5,13,0.084442,2.993931
[MO833] Paramount Iteration,1,13,0.084529,2.994189
[MO833] Paramount Iteration,0,13,0.084824,2.994395
[MO833] Paramount Iteration,6,13,0.084582,2.994170
[MO833] Paramount Iteration,7,13,0.084420,2.994296
[MO833] Paramount Iteration,3,14,0.085633,3.079138
[MO833] Paramount Iteration,5,14,0.085322,3.079293
[MO833] Paramount Iteration,2,14,0.085769,3.079288
[MO833] Paramount Iteration,4,14,0.085745,3.079474
[MO833] Paramount Iteration,1,14,0.085531,3.079781
[MO833] Paramount Iteration,6,14,0.085666,3.079871
[MO833] Paramount Iteration,7,14,0.085540,3.079870
[MO833] Paramount Iteration,0,14,0.085991,3.080409
[MO833] Paramount Iteration,2,15,0.085847,3.165155
[MO833] Paramount Iteration,3,15,0.085942,3.165159
[MO833] Paramount Iteration,5,15,0.085928,3.165296
[MO833] Paramount Iteration,4,15,0.085855,3.165346
[MO833] Paramount Iteration,1,15,0.085733,3.165577
[MO833] Paramount Iteration,0,15,0.085194,3.165624
[MO833] Paramount Iteration,6,15,0.085641,3.165541
[MO833] Paramount Iteration,7,15,0.086009,3.165971
[MO833] Paramount Iteration,0,16,0.398302,3.563959
[MO833] Paramount Iteration,3,16,0.398639,3.563876
[MO833] Paramount Iteration,4,16,0.398607,3.563961
[MO833] Paramount Iteration,1,16,0.398574,3.564223
[MO833] Paramount Iteration,2,16,0.398846,3.564008
[MO833] Paramount Iteration,5,16,0.398695,3.564072
[MO833] Paramount Iteration,6,16,0.398690,3.564264
[MO833] Paramount Iteration,7,16,0.398246,3.564266
[MO833] Paramount Iteration,5,17,0.085364,3.649468
[MO833] Paramount Iteration,4,17,0.085549,3.649543
[MO833] Paramount Iteration,1,17,0.085548,3.649805
[MO833] Paramount Iteration,3,17,0.085579,3.649538
[MO833] Paramount Iteration,0,17,0.085959,3.649952
[MO833] Paramount Iteration,2,17,0.085681,3.649710
[MO833] Paramount Iteration,6,17,0.085745,3.650035
[MO833] Paramount Iteration,7,17,0.085787,3.650135
[MO833] Paramount Iteration,0,18,0.086007,3.735977
[MO833] Paramount Iteration,2,18,0.085951,3.735680
[MO833] Paramount Iteration,4,18,0.086203,3.735779
[MO833] Paramount Iteration,5,18,0.086325,3.735870
[MO833] Paramount Iteration,1,18,0.086313,3.736173
[MO833] Paramount Iteration,3,18,0.086289,3.735910
[MO833] Paramount Iteration,6,18,0.086024,3.736092
[MO833] Paramount Iteration,7,18,0.086271,3.736434
[MO833] Paramount Iteration,0,19,0.086327,3.822338
[MO833] Paramount Iteration,1,19,0.086238,3.822449
[MO833] Paramount Iteration,3,19,0.086319,3.822277
[MO833] Paramount Iteration,4,19,0.086678,3.822488
[MO833] Paramount Iteration,5,19,0.086588,3.822486
[MO833] Paramount Iteration,2,19,0.086833,3.822544
[MO833] Paramount Iteration,6,19,0.086807,3.822932
[MO833] Paramount Iteration,7,19,0.086480,3.822962
[MO833] Paramount Iteration,0,20,0.410661,4.233031
[MO833] Paramount Iteration,1,20,0.410946,4.233422
[MO833] Paramount Iteration,4,20,0.410673,4.233190
[MO833] Paramount Iteration,3,20,0.410862,4.233237
[MO833] Paramount Iteration,2,20,0.410682,4.233247
[MO833] Paramount Iteration,5,20,0.410869,4.233432
[MO833] Paramount Iteration,6,20,0.410801,4.233770
[MO833] Paramount Iteration,7,20,0.410833,4.233877
[MO833] Paramount Iteration,3,21,0.086125,4.319448
[MO833] Paramount Iteration,1,21,0.086444,4.319912
[MO833] Paramount Iteration,0,21,0.086889,4.319951
[MO833] Paramount Iteration,2,21,0.086573,4.319829
[MO833] Paramount Iteration,5,21,0.086429,4.319905
[MO833] Paramount Iteration,4,21,0.086726,4.319947
[MO833] Paramount Iteration,7,21,0.086315,4.320223
[MO833] Paramount Iteration,6,21,0.086458,4.320261
[MO833] Paramount Iteration,0,22,0.087596,4.407610
[MO833] Paramount Iteration,3,22,0.087806,4.407337
[MO833] Paramount Iteration,4,22,0.087454,4.407409
[MO833] Paramount Iteration,1,22,0.087760,4.407728
[MO833] Paramount Iteration,2,22,0.087582,4.407433
[MO833] Paramount Iteration,5,22,0.087510,4.407503
[MO833] Paramount Iteration,6,22,0.087654,4.407925
[MO833] Paramount Iteration,7,22,0.087626,4.407938
[MO833] Paramount Iteration,0,23,0.086744,4.494584
[MO833] Paramount Iteration,1,23,0.086881,4.494645
[MO833] Paramount Iteration,3,23,0.086950,4.494369
[MO833] Paramount Iteration,5,23,0.086897,4.494429
[MO833] Paramount Iteration,4,23,0.087066,4.494507
[MO833] Paramount Iteration,6,23,0.086683,4.494642
[MO833] Paramount Iteration,7,23,0.086726,4.494745
[MO833] Paramount Iteration,2,23,0.087258,4.494709
[MO833] Paramount Iteration,0,24,0.400794,4.895502
[MO833] Paramount Iteration,3,24,0.400708,4.895158
[MO833] Paramount Iteration,1,24,0.400855,4.895526
[MO833] Paramount Iteration,2,24,0.400461,4.895192
[MO833] Paramount Iteration,6,24,0.400925,4.895599
[MO833] Paramount Iteration,7,24,0.400921,4.895697
[MO833] Paramount Iteration,5,24,0.401263,4.895770
[MO833] Paramount Iteration,4,24,0.401273,4.895812
[MO833] Paramount Iteration,0,25,0.087468,4.983160
[MO833] Paramount Iteration,1,25,0.087615,4.983149
[MO833] Paramount Iteration,3,25,0.087671,4.982910
[MO833] Paramount Iteration,2,25,0.087793,4.982994
[MO833] Paramount Iteration,5,25,0.087376,4.983235
[MO833] Paramount Iteration,4,25,0.087486,4.983309
[MO833] Paramount Iteration,6,25,0.087800,4.983433
[MO833] Paramount Iteration,7,25,0.087733,4.983455
[MO833] Paramount Iteration,3,26,0.086984,5.069970
[MO833] Paramount Iteration,2,26,0.086977,5.069987
[MO833] Paramount Iteration,1,26,0.087210,5.070431
[MO833] Paramount Iteration,0,26,0.087334,5.070506
[MO833] Paramount Iteration,5,26,0.087104,5.070429
[MO833] Paramount Iteration,4,26,0.087161,5.070480
[MO833] Paramount Iteration,6,26,0.087036,5.070500
[MO833] Paramount Iteration,7,26,0.087178,5.070709
[MO833] Paramount Iteration,0,27,0.087756,5.158316
[MO833] Paramount Iteration,2,27,0.088055,5.158050
[MO833] Paramount Iteration,1,27,0.087973,5.158471
[MO833] Paramount Iteration,3,27,0.088032,5.158074
[MO833] Paramount Iteration,6,27,0.087696,5.158233
[MO833] Paramount Iteration,4,27,0.087817,5.158307
[MO833] Paramount Iteration,5,27,0.087910,5.158429
[MO833] Paramount Iteration,7,27,0.088039,5.158791
[MO833] Paramount Iteration,5,28,0.415581,5.574072
[MO833] Paramount Iteration,1,28,0.415956,5.574461
[MO833] Paramount Iteration,4,28,0.415894,5.574234
[MO833] Paramount Iteration,3,28,0.416012,5.574164
[MO833] Paramount Iteration,0,28,0.416261,5.574696
[MO833] Paramount Iteration,2,28,0.416483,5.574559
[MO833] Paramount Iteration,6,28,0.416612,5.574878
[MO833] Paramount Iteration,7,28,0.416066,5.574907
[MO833] Paramount Iteration,0,29,0.088625,5.663398
[MO833] Paramount Iteration,1,29,0.089280,5.663802
[MO833] Paramount Iteration,3,29,0.089209,5.663456
[MO833] Paramount Iteration,4,29,0.089276,5.663530
[MO833] Paramount Iteration,2,29,0.089045,5.663625
[MO833] Paramount Iteration,5,29,0.089706,5.663853
[MO833] Paramount Iteration,6,29,0.089432,5.664345
[MO833] Paramount Iteration,7,29,0.089340,5.664330
[MO833] Paramount Iteration,4,30,0.091960,5.755524
[MO833] Paramount Iteration,0,30,0.092464,5.755980
[MO833] Paramount Iteration,5,30,0.091823,5.755721
[MO833] Paramount Iteration,1,30,0.092190,5.756053
[MO833] Paramount Iteration,3,30,0.092308,5.755843
[MO833] Paramount Iteration,2,30,0.092306,5.755953
[MO833] Paramount Iteration,6,30,0.091693,5.756056
[MO833] Paramount Iteration,7,30,0.091756,5.756174
[MO833] Paramount Iteration,3,31,0.089285,5.845211
[MO833] Paramount Iteration,4,31,0.089689,5.845244
[MO833] Paramount Iteration,5,31,0.089460,5.845250
[MO833] Paramount Iteration,2,31,0.089349,5.845322
[MO833] Paramount Iteration,1,31,0.089892,5.845972
[MO833] Paramount Iteration,0,31,0.090054,5.846164
[MO833] Paramount Iteration,6,31,0.089791,5.845884
[MO833] Paramount Iteration,7,31,0.089788,5.845995
[MO833] Paramount Iteration,4,32,0.413545,6.258817
[MO833] Paramount Iteration,5,32,0.413672,6.258989
[MO833] Paramount Iteration,2,32,0.413640,6.258981
[MO833] Paramount Iteration,3,32,0.413727,6.259020
[MO833] Paramount Iteration,1,32,0.413435,6.259470
[MO833] Paramount Iteration,0,32,0.413343,6.259583
[MO833] Paramount Iteration,6,32,0.413498,6.259415
[MO833] Paramount Iteration,7,32,0.413523,6.259546
[MO833] Paramount Iteration,0,33,0.088426,6.348066
[MO833] Paramount Iteration,4,33,0.088984,6.347831
[MO833] Paramount Iteration,5,33,0.088852,6.347906
[MO833] Paramount Iteration,2,33,0.088907,6.347919
[MO833] Paramount Iteration,6,33,0.088501,6.347951
[MO833] Paramount Iteration,1,33,0.088837,6.348378
[MO833] Paramount Iteration,3,33,0.089016,6.348112
[MO833] Paramount Iteration,7,33,0.088835,6.348455
[MO833] Paramount Iteration,5,34,0.088457,6.436388
[MO833] Paramount Iteration,4,34,0.088825,6.436686
[MO833] Paramount Iteration,1,34,0.088557,6.436990
[MO833] Paramount Iteration,0,34,0.089098,6.437375
[MO833] Paramount Iteration,2,34,0.089085,6.437038
[MO833] Paramount Iteration,3,34,0.089042,6.437193
[MO833] Paramount Iteration,6,34,0.089398,6.437396
[MO833] Paramount Iteration,7,34,0.089056,6.437560
[MO833] Paramount Iteration,5,35,0.090416,6.526881
[MO833] Paramount Iteration,4,35,0.090316,6.527022
[MO833] Paramount Iteration,1,35,0.090313,6.527351
[MO833] Paramount Iteration,0,35,0.090116,6.527555
[MO833] Paramount Iteration,2,35,0.090190,6.527265
[MO833] Paramount Iteration,3,35,0.090043,6.527270
[MO833] Paramount Iteration,6,35,0.089902,6.527331
[MO833] Paramount Iteration,7,35,0.089753,6.527357
[MO833] Paramount Iteration,0,36,0.408081,6.935712
[MO833] Paramount Iteration,1,36,0.408409,6.935817
[MO833] Paramount Iteration,3,36,0.408168,6.935522
[MO833] Paramount Iteration,4,36,0.408698,6.935740
[MO833] Paramount Iteration,5,36,0.408762,6.935715
[MO833] Paramount Iteration,2,36,0.408464,6.935736
[MO833] Paramount Iteration,6,36,0.408635,6.936000
[MO833] Paramount Iteration,7,36,0.408549,6.935986
[MO833] Paramount Iteration,0,37,0.089045,7.024873
[MO833] Paramount Iteration,3,37,0.088886,7.024489
[MO833] Paramount Iteration,4,37,0.089004,7.024756
[MO833] Paramount Iteration,2,37,0.088927,7.024684
[MO833] Paramount Iteration,1,37,0.089305,7.025162
[MO833] Paramount Iteration,6,37,0.088833,7.024846
[MO833] Paramount Iteration,5,37,0.089107,7.024906
[MO833] Paramount Iteration,7,37,0.088764,7.024837
[MO833] Paramount Iteration,5,38,0.087645,7.112637
[MO833] Paramount Iteration,4,38,0.087913,7.112704
[MO833] Paramount Iteration,1,38,0.088087,7.113299
[MO833] Paramount Iteration,0,38,0.088391,7.113461
[MO833] Paramount Iteration,2,38,0.088345,7.113066
[MO833] Paramount Iteration,3,38,0.088500,7.113070
[MO833] Paramount Iteration,6,38,0.088529,7.113488
[MO833] Paramount Iteration,7,38,0.088657,7.113528
[MO833] Paramount Iteration,4,39,0.089772,7.202503
[MO833] Paramount Iteration,3,39,0.089363,7.202516
[MO833] Paramount Iteration,5,39,0.089943,7.202648
[MO833] Paramount Iteration,1,39,0.089736,7.203100
[MO833] Paramount Iteration,0,39,0.089535,7.203129
[MO833] Paramount Iteration,2,39,0.089704,7.202780
[MO833] Paramount Iteration,6,39,0.089390,7.202985
[MO833] Paramount Iteration,7,39,0.089482,7.203019
[MO833] Paramount Iteration,0,40,0.412555,7.615692
[MO833] Paramount Iteration,3,40,0.412779,7.615376
[MO833] Paramount Iteration,4,40,0.412909,7.615443
[MO833] Paramount Iteration,5,40,0.412883,7.615573
[MO833] Paramount Iteration,2,40,0.412688,7.615491
[MO833] Paramount Iteration,1,40,0.412770,7.615938
[MO833] Paramount Iteration,6,40,0.412955,7.616064
[MO833] Paramount Iteration,7,40,0.413120,7.616147
[MO833] Paramount Iteration,0,41,0.089618,7.705546
[MO833] Paramount Iteration,1,41,0.089717,7.705697
[MO833] Paramount Iteration,4,41,0.089923,7.705399
[MO833] Paramount Iteration,2,41,0.089789,7.705312
[MO833] Paramount Iteration,5,41,0.089780,7.705390
[MO833] Paramount Iteration,3,41,0.089888,7.705339
[MO833] Paramount Iteration,6,41,0.089482,7.705697
[MO833] Paramount Iteration,7,41,0.089706,7.705873
[MO833] Paramount Iteration,0,42,0.089443,7.795114
[MO833] Paramount Iteration,1,42,0.089540,7.795282
[MO833] Paramount Iteration,4,42,0.089504,7.794932
[MO833] Paramount Iteration,3,42,0.089486,7.794898
[MO833] Paramount Iteration,5,42,0.089561,7.795032
[MO833] Paramount Iteration,2,42,0.089604,7.794938
[MO833] Paramount Iteration,6,42,0.089321,7.795117
[MO833] Paramount Iteration,7,42,0.089267,7.795159
[MO833] Paramount Iteration,0,43,0.088770,7.884004
[MO833] Paramount Iteration,1,43,0.088825,7.884155
[MO833] Paramount Iteration,3,43,0.088796,7.883777
[MO833] Paramount Iteration,7,43,0.088661,7.883829
[MO833] Paramount Iteration,4,43,0.088951,7.883914
[MO833] Paramount Iteration,5,43,0.088846,7.883911
[MO833] Paramount Iteration,6,43,0.088746,7.883969
[MO833] Paramount Iteration,2,43,0.089049,7.883997
[MO833] Paramount Iteration,0,44,0.407024,8.291150
[MO833] Paramount Iteration,2,44,0.406747,8.290766
[MO833] Paramount Iteration,1,44,0.407082,8.291291
[MO833] Paramount Iteration,3,44,0.406938,8.290793
[MO833] Paramount Iteration,4,44,0.407065,8.291008
[MO833] Paramount Iteration,5,44,0.406983,8.290971
[MO833] Paramount Iteration,6,44,0.406948,8.290960
[MO833] Paramount Iteration,7,44,0.407116,8.290978
[MO833] Paramount Iteration,3,45,0.088801,8.379615
[MO833] Paramount Iteration,2,45,0.088833,8.379706
[MO833] Paramount Iteration,4,45,0.088980,8.379996
[MO833] Paramount Iteration,5,45,0.088914,8.379967
[MO833] Paramount Iteration,1,45,0.089066,8.380393
[MO833] Paramount Iteration,0,45,0.089160,8.380509
[MO833] Paramount Iteration,6,45,0.089197,8.380265
[MO833] Paramount Iteration,7,45,0.089273,8.380260
[MO833] Paramount Iteration,3,46,0.088612,8.468305
[MO833] Paramount Iteration,5,46,0.088338,8.468389
[MO833] Paramount Iteration,1,46,0.088355,8.468805
[MO833] Paramount Iteration,2,46,0.088555,8.468307
[MO833] Paramount Iteration,4,46,0.088538,8.468543
[MO833] Paramount Iteration,0,46,0.088480,8.469050
[MO833] Paramount Iteration,6,46,0.088216,8.468586
[MO833] Paramount Iteration,7,46,0.088344,8.468635
[MO833] Paramount Iteration,2,47,0.088706,8.557022
[MO833] Paramount Iteration,6,47,0.088311,8.557002
[MO833] Paramount Iteration,5,47,0.088674,8.557146
[MO833] Paramount Iteration,3,47,0.088653,8.557034
[MO833] Paramount Iteration,7,47,0.088509,8.557152
[MO833] Paramount Iteration,4,47,0.088720,8.557284
[MO833] Paramount Iteration,1,47,0.088900,8.557760
[MO833] Paramount Iteration,0,47,0.088742,8.557910
[MO833] Paramount Iteration,2,48,0.410139,8.967174
[MO833] Paramount Iteration,5,48,0.410125,8.967353
[MO833] Paramount Iteration,3,48,0.410093,8.967207
[MO833] Paramount Iteration,4,48,0.410128,8.967431
[MO833] Paramount Iteration,1,48,0.410033,8.967857
[MO833] Paramount Iteration,0,48,0.410120,8.968101
[MO833] Paramount Iteration,6,48,0.410512,8.967617
[MO833] Paramount Iteration,7,48,0.410449,8.967653
[MO833] Paramount Iteration,5,49,0.091543,9.058975
[MO833] Paramount Iteration,3,49,0.091722,9.058946
[MO833] Paramount Iteration,4,49,0.091669,9.059132
[MO833] Paramount Iteration,1,49,0.091574,9.059501
[MO833] Paramount Iteration,2,49,0.091746,9.059020
[MO833] Paramount Iteration,0,49,0.091467,9.059711
[MO833] Paramount Iteration,6,49,0.091551,9.059282
[MO833] Paramount Iteration,7,49,0.091673,9.059334
[MO833] Paramount Iteration,0,50,0.089931,9.149726
[MO833] Paramount Iteration,3,50,0.090281,9.149303
[MO833] Paramount Iteration,4,50,0.090263,9.149415
[MO833] Paramount Iteration,2,50,0.090376,9.149438
[MO833] Paramount Iteration,5,50,0.090505,9.149562
[MO833] Paramount Iteration,1,50,0.090352,9.149908
[MO833] Paramount Iteration,6,50,0.090598,9.149986
[MO833] Paramount Iteration,7,50,0.090990,9.150333
[MO833] Paramount Iteration,3,51,0.091358,9.240737
[MO833] Paramount Iteration,5,51,0.091272,9.240875
[MO833] Paramount Iteration,4,51,0.091490,9.240939
[MO833] Paramount Iteration,2,51,0.091439,9.240956
[MO833] Paramount Iteration,1,51,0.091476,9.241437
[MO833] Paramount Iteration,7,51,0.090683,9.241039
[MO833] Paramount Iteration,6,51,0.091085,9.241180
[MO833] Paramount Iteration,0,51,0.091875,9.241804
[MO833] Paramount Iteration,3,52,0.411713,9.652483
[MO833] Paramount Iteration,2,52,0.411562,9.652558
[MO833] Paramount Iteration,6,52,0.411598,9.652810
[MO833] Paramount Iteration,5,52,0.411921,9.652894
[MO833] Paramount Iteration,7,52,0.411775,9.652847
[MO833] Paramount Iteration,4,52,0.411974,9.652935
[MO833] Paramount Iteration,1,52,0.412106,9.653596
[MO833] Paramount Iteration,0,52,0.411951,9.653823
[MO833] Paramount Iteration,2,53,0.090615,9.743196
[MO833] Paramount Iteration,6,53,0.090307,9.743257
[MO833] Paramount Iteration,3,53,0.090752,9.743314
[MO833] Paramount Iteration,7,53,0.090514,9.743371
[MO833] Paramount Iteration,1,53,0.090268,9.743931
[MO833] Paramount Iteration,5,53,0.090560,9.743558
[MO833] Paramount Iteration,4,53,0.090655,9.743614
[MO833] Paramount Iteration,0,53,0.090337,9.744231
[MO833] Paramount Iteration,0,54,0.089408,9.833731
[MO833] Paramount Iteration,3,54,0.089996,9.833340
[MO833] Paramount Iteration,1,54,0.089895,9.833891
[MO833] Paramount Iteration,2,54,0.090212,9.833438
[MO833] Paramount Iteration,4,54,0.090031,9.833655
[MO833] Paramount Iteration,5,54,0.090159,9.833806
[MO833] Paramount Iteration,7,54,0.090472,9.833861
[MO833] Paramount Iteration,6,54,0.090660,9.834019
[MO833] Paramount Iteration,3,55,0.090585,9.924002
[MO833] Paramount Iteration,2,55,0.091114,9.924570
[MO833] Paramount Iteration,7,55,0.090711,9.924609
[MO833] Paramount Iteration,1,55,0.091219,9.925144
[MO833] Paramount Iteration,5,55,0.090883,9.924762
[MO833] Paramount Iteration,4,55,0.091195,9.924886
[MO833] Paramount Iteration,6,55,0.090900,9.924956
[MO833] Paramount Iteration,0,55,0.091695,9.925647
[MO833] Paramount Iteration,2,56,0.416448,10.341040
[MO833] Paramount Iteration,5,56,0.416322,10.341170
[MO833] Paramount Iteration,3,56,0.417007,10.341088
[MO833] Paramount Iteration,4,56,0.416544,10.341454
[MO833] Paramount Iteration,1,56,0.416694,10.341898
[MO833] Paramount Iteration,6,56,0.416353,10.341369
[MO833] Paramount Iteration,7,56,0.416953,10.341599
[MO833] Paramount Iteration,0,56,0.416650,10.342370
[MO833] Paramount Iteration,2,57,0.091730,10.432802
[MO833] Paramount Iteration,3,57,0.091643,10.432806
[MO833] Paramount Iteration,5,57,0.091946,10.433201
[MO833] Paramount Iteration,4,57,0.091780,10.433256
[MO833] Paramount Iteration,1,57,0.091707,10.433667
[MO833] Paramount Iteration,6,57,0.091719,10.433195
[MO833] Paramount Iteration,7,57,0.091763,10.433385
[MO833] Paramount Iteration,0,57,0.091595,10.434039
[MO833] Paramount Iteration,2,58,0.092854,10.525664
[MO833] Paramount Iteration,3,58,0.092778,10.525678
[MO833] Paramount Iteration,6,58,0.092505,10.525783
[MO833] Paramount Iteration,5,58,0.092627,10.525915
[MO833] Paramount Iteration,7,58,0.092409,10.525815
[MO833] Paramount Iteration,4,58,0.092866,10.526132
[MO833] Paramount Iteration,1,58,0.092841,10.526557
[MO833] Paramount Iteration,0,58,0.092898,10.527006
[MO833] Paramount Iteration,2,59,0.092535,10.618215
[MO833] Paramount Iteration,3,59,0.092554,10.618315
[MO833] Paramount Iteration,5,59,0.092546,10.618545
[MO833] Paramount Iteration,1,59,0.092493,10.619111
[MO833] Paramount Iteration,4,59,0.092581,10.618734
[MO833] Paramount Iteration,6,59,0.092742,10.618645
[MO833] Paramount Iteration,0,59,0.092387,10.619469
[MO833] Paramount Iteration,7,59,0.093139,10.618964
[MO833] Paramount Iteration,3,60,0.425825,11.044192
[MO833] Paramount Iteration,2,60,0.426034,11.044376
[MO833] Paramount Iteration,4,60,0.425767,11.044523
[MO833] Paramount Iteration,5,60,0.425874,11.044508
[MO833] Paramount Iteration,1,60,0.426148,11.045325
[MO833] Paramount Iteration,6,60,0.426130,11.044880
[MO833] Paramount Iteration,7,60,0.425851,11.044850
[MO833] Paramount Iteration,0,60,0.426028,11.045613
[MO833] Paramount Iteration,5,61,0.091420,11.135954
[MO833] Paramount Iteration,4,61,0.091554,11.136167
[MO833] Paramount Iteration,1,61,0.091333,11.136730
[MO833] Paramount Iteration,2,61,0.091828,11.136285
[MO833] Paramount Iteration,3,61,0.092109,11.136377
[MO833] Paramount Iteration,6,61,0.091545,11.136545
[MO833] Paramount Iteration,0,61,0.091598,11.137282
[MO833] Paramount Iteration,7,61,0.091875,11.136776
[MO833] Paramount Iteration,4,62,0.092386,11.228599
[MO833] Paramount Iteration,5,62,0.092585,11.228611
[MO833] Paramount Iteration,3,62,0.092257,11.228665
[MO833] Paramount Iteration,2,62,0.092533,11.228911
[MO833] Paramount Iteration,1,62,0.092704,11.229501
[MO833] Paramount Iteration,0,62,0.092297,11.229649
[MO833] Paramount Iteration,6,62,0.092641,11.229313
[MO833] Paramount Iteration,7,62,0.092496,11.229293
[MO833] Paramount Iteration,5,63,0.092403,11.321023
[MO833] Paramount Iteration,4,63,0.092472,11.321143
[MO833] Paramount Iteration,2,63,0.092361,11.321336
[MO833] Paramount Iteration,3,63,0.092641,11.321387
[MO833] Paramount Iteration,1,63,0.092435,11.321997
[MO833] Paramount Iteration,0,63,0.092545,11.322268
[MO833] Paramount Iteration,6,63,0.092387,11.321796
[MO833] Paramount Iteration,7,63,0.092701,11.322029
[MO833] Paramount Iteration,3,64,0.427089,11.748485
[MO833] Paramount Iteration,4,64,0.427411,11.748606
[MO833] Paramount Iteration,5,64,0.427478,11.748577
[MO833] Paramount Iteration,1,64,0.427138,11.749207
[MO833] Paramount Iteration,2,64,0.427202,11.748641
[MO833] Paramount Iteration,0,64,0.426995,11.749340
[MO833] Paramount Iteration,6,64,0.427422,11.749348
[MO833] Paramount Iteration,7,64,0.427294,11.749347
[MO833] Paramount Iteration,3,65,0.093236,11.841796
[MO833] Paramount Iteration,2,65,0.093312,11.842031
[MO833] Paramount Iteration,4,65,0.093612,11.842227
[MO833] Paramount Iteration,1,65,0.093413,11.842679
[MO833] Paramount Iteration,5,65,0.093615,11.842272
[MO833] Paramount Iteration,0,65,0.093385,11.842790
[MO833] Paramount Iteration,6,65,0.093241,11.842708
[MO833] Paramount Iteration,7,65,0.093366,11.842745
[MO833] Paramount Iteration,5,66,0.094842,11.937124
[MO833] Paramount Iteration,3,66,0.095196,11.937071
[MO833] Paramount Iteration,4,66,0.094852,11.937180
[MO833] Paramount Iteration,1,66,0.094945,11.937684
[MO833] Paramount Iteration,0,66,0.095084,11.937935
[MO833] Paramount Iteration,2,66,0.095374,11.937467
[MO833] Paramount Iteration,7,66,0.095113,11.937867
[MO833] Paramount Iteration,6,66,0.095169,11.938006
[MO833] Paramount Iteration,3,67,0.095279,12.032433
[MO833] Paramount Iteration,1,67,0.095475,12.033210
[MO833] Paramount Iteration,2,67,0.095061,12.032593
[MO833] Paramount Iteration,0,67,0.095301,12.033309
[MO833] Paramount Iteration,4,67,0.095808,12.032997
[MO833] Paramount Iteration,5,67,0.095776,12.032977
[MO833] Paramount Iteration,6,67,0.095249,12.033301
[MO833] Paramount Iteration,7,67,0.095322,12.033278
[MO833] Paramount Iteration,0,68,0.422391,12.455746
[MO833] Paramount Iteration,1,68,0.422791,12.456060
[MO833] Paramount Iteration,3,68,0.423048,12.455560
[MO833] Paramount Iteration,4,68,0.422760,12.455770
[MO833] Paramount Iteration,5,68,0.422733,12.455786
[MO833] Paramount Iteration,2,68,0.422993,12.455690
[MO833] Paramount Iteration,6,68,0.422574,12.455884
[MO833] Paramount Iteration,7,68,0.422559,12.455928
[MO833] Paramount Iteration,0,69,0.090995,12.546868
[MO833] Paramount Iteration,3,69,0.090657,12.546297
[MO833] Paramount Iteration,4,69,0.090667,12.546472
[MO833] Paramount Iteration,1,69,0.090865,12.546979
[MO833] Paramount Iteration,2,69,0.090631,12.546399
[MO833] Paramount Iteration,5,69,0.090605,12.546470
[MO833] Paramount Iteration,6,69,0.090502,12.546478
[MO833] Paramount Iteration,7,69,0.090582,12.546521
[MO833] Paramount Iteration,0,70,0.089492,12.636588
[MO833] Paramount Iteration,1,70,0.089719,12.636729
[MO833] Paramount Iteration,3,70,0.089823,12.636203
[MO833] Paramount Iteration,5,70,0.089785,12.636322
[MO833] Paramount Iteration,4,70,0.089897,12.636393
[MO833] Paramount Iteration,2,70,0.089891,12.636340
[MO833] Paramount Iteration,6,70,0.089846,12.636409
[MO833] Paramount Iteration,7,70,0.089905,12.636436
[MO833] Paramount Iteration,1,71,0.090929,12.727709
[MO833] Paramount Iteration,5,71,0.090816,12.727212
[MO833] Paramount Iteration,4,71,0.090938,12.727363
[MO833] Paramount Iteration,0,71,0.091226,12.727928
[MO833] Paramount Iteration,6,71,0.090760,12.727287
[MO833] Paramount Iteration,7,71,0.090919,12.727366
[MO833] Paramount Iteration,2,71,0.091058,12.727478
[MO833] Paramount Iteration,3,71,0.091202,12.727482
[MO833] Paramount Iteration,1,72,0.416154,13.143923
[MO833] Paramount Iteration,0,72,0.415905,13.143963
[MO833] Paramount Iteration,6,72,0.415957,13.143363
[MO833] Paramount Iteration,5,72,0.416225,13.143517
[MO833] Paramount Iteration,4,72,0.416320,13.143703
[MO833] Paramount Iteration,7,72,0.416245,13.143622
[MO833] Paramount Iteration,3,72,0.416155,13.143719
[MO833] Paramount Iteration,2,72,0.416251,13.143739
[MO833] Paramount Iteration,0,73,0.092028,13.236000
[MO833] Paramount Iteration,1,73,0.092074,13.236078
[MO833] Paramount Iteration,4,73,0.092035,13.235758
[MO833] Paramount Iteration,5,73,0.092147,13.235742
[MO833] Paramount Iteration,6,73,0.092200,13.235665
[MO833] Paramount Iteration,7,73,0.092106,13.235749
[MO833] Paramount Iteration,2,73,0.092264,13.236013
[MO833] Paramount Iteration,3,73,0.092244,13.236050
[MO833] Paramount Iteration,0,74,0.092769,13.328891
[MO833] Paramount Iteration,6,74,0.092424,13.328212
[MO833] Paramount Iteration,4,74,0.092767,13.328545
[MO833] Paramount Iteration,1,74,0.092805,13.328911
[MO833] Paramount Iteration,5,74,0.092685,13.328507
[MO833] Paramount Iteration,7,74,0.092779,13.328545
[MO833] Paramount Iteration,2,74,0.092750,13.328876
[MO833] Paramount Iteration,3,74,0.092915,13.328982
[MO833] Paramount Iteration,0,75,0.092714,13.421847
[MO833] Paramount Iteration,1,75,0.092977,13.421897
[MO833] Paramount Iteration,5,75,0.092947,13.421537
[MO833] Paramount Iteration,4,75,0.093062,13.421616
[MO833] Paramount Iteration,3,75,0.092562,13.421563
[MO833] Paramount Iteration,6,75,0.093189,13.421506
[MO833] Paramount Iteration,7,75,0.093006,13.421575
[MO833] Paramount Iteration,2,75,0.092658,13.421679
[MO833] Paramount Iteration,0,76,0.416039,13.838021
[MO833] Paramount Iteration,1,76,0.416173,13.838080
[MO833] Paramount Iteration,2,76,0.415658,13.837410
[MO833] Paramount Iteration,3,76,0.415861,13.837459
[MO833] Paramount Iteration,6,76,0.415912,13.837501
[MO833] Paramount Iteration,7,76,0.416015,13.837612
[MO833] Paramount Iteration,4,76,0.416428,13.838054
[MO833] Paramount Iteration,5,76,0.416433,13.838060
[MO833] Paramount Iteration,0,77,0.091783,13.930000
[MO833] Paramount Iteration,3,77,0.091917,13.929385
[MO833] Paramount Iteration,1,77,0.092002,13.930110
[MO833] Paramount Iteration,4,77,0.091600,13.929688
[MO833] Paramount Iteration,2,77,0.092084,13.929595
[MO833] Paramount Iteration,5,77,0.091640,13.929778
[MO833] Paramount Iteration,6,77,0.092341,13.929947
[MO833] Paramount Iteration,7,77,0.092288,13.929937
[MO833] Paramount Iteration,3,78,0.092502,14.021966
[MO833] Paramount Iteration,1,78,0.092612,14.022752
[MO833] Paramount Iteration,5,78,0.092551,14.022358
[MO833] Paramount Iteration,4,78,0.092717,14.022437
[MO833] Paramount Iteration,0,78,0.092718,14.022895
[MO833] Paramount Iteration,2,78,0.092706,14.022360
[MO833] Paramount Iteration,6,78,0.092645,14.022702
[MO833] Paramount Iteration,7,78,0.092730,14.022701
[MO833] Paramount Iteration,0,79,0.093848,14.116880
[MO833] Paramount Iteration,5,79,0.093952,14.116399
[MO833] Paramount Iteration,1,79,0.094064,14.116883
[MO833] Paramount Iteration,3,79,0.094350,14.116398
[MO833] Paramount Iteration,4,79,0.094107,14.116553
[MO833] Paramount Iteration,2,79,0.094189,14.116640
[MO833] Paramount Iteration,7,79,0.094082,14.116810
[MO833] Paramount Iteration,6,79,0.094151,14.116970
[MO833] Paramount Iteration,3,80,0.417781,14.534261
[MO833] Paramount Iteration,6,80,0.417220,14.534224
[MO833] Paramount Iteration,1,80,0.418063,14.535015
[MO833] Paramount Iteration,2,80,0.417687,14.534389
[MO833] Paramount Iteration,7,80,0.417452,14.534301
[MO833] Paramount Iteration,0,80,0.418054,14.534958
[MO833] Paramount Iteration,5,80,0.418225,14.534706
[MO833] Paramount Iteration,4,80,0.418194,14.534766
[MO833] Paramount Iteration,0,81,0.090526,14.625692
[MO833] Paramount Iteration,1,81,0.090602,14.625677
[MO833] Paramount Iteration,5,81,0.090505,14.625300
[MO833] Paramount Iteration,4,81,0.090600,14.625376
[MO833] Paramount Iteration,6,81,0.090877,14.625226
[MO833] Paramount Iteration,3,81,0.091073,14.625411
[MO833] Paramount Iteration,7,81,0.091059,14.625376
[MO833] Paramount Iteration,2,81,0.090990,14.625434
[MO833] Paramount Iteration,0,82,0.091644,14.717346
[MO833] Paramount Iteration,1,82,0.091573,14.717324
[MO833] Paramount Iteration,4,82,0.091523,14.716909
[MO833] Paramount Iteration,5,82,0.091635,14.717020
[MO833] Paramount Iteration,3,82,0.091777,14.717273
[MO833] Paramount Iteration,6,82,0.091906,14.717232
[MO833] Paramount Iteration,2,82,0.091838,14.717281
[MO833] Paramount Iteration,7,82,0.091875,14.717275
[MO833] Paramount Iteration,0,83,0.092931,14.810285
[MO833] Paramount Iteration,1,83,0.092964,14.810363
[MO833] Paramount Iteration,5,83,0.092834,14.809887
[MO833] Paramount Iteration,4,83,0.093005,14.809945
[MO833] Paramount Iteration,6,83,0.092444,14.809791
[MO833] Paramount Iteration,2,83,0.092569,14.809860
[MO833] Paramount Iteration,7,83,0.092614,14.809899
[MO833] Paramount Iteration,3,83,0.092628,14.809989
[MO833] Paramount Iteration,4,84,0.427448,15.237402
[MO833] Paramount Iteration,5,84,0.427432,15.237402
[MO833] Paramount Iteration,1,84,0.427638,15.238029
[MO833] Paramount Iteration,0,84,0.427730,15.238133
[MO833] Paramount Iteration,6,84,0.427539,15.237437
[MO833] Paramount Iteration,7,84,0.427577,15.237510
[MO833] Paramount Iteration,3,84,0.427768,15.237787
[MO833] Paramount Iteration,2,84,0.428063,15.237959
[MO833] Paramount Iteration,4,85,0.092553,15.329986
[MO833] Paramount Iteration,5,85,0.092496,15.329976
[MO833] Paramount Iteration,2,85,0.092093,15.330074
[MO833] Paramount Iteration,3,85,0.092204,15.330077
[MO833] Paramount Iteration,6,85,0.092512,15.330078
[MO833] Paramount Iteration,7,85,0.092589,15.330122
[MO833] Paramount Iteration,1,85,0.092841,15.330917
[MO833] Paramount Iteration,0,85,0.093064,15.331261
[MO833] Paramount Iteration,4,86,0.092165,15.422174
[MO833] Paramount Iteration,5,86,0.092102,15.422153
[MO833] Paramount Iteration,1,86,0.091985,15.422967
[MO833] Paramount Iteration,3,86,0.092216,15.422380
[MO833] Paramount Iteration,2,86,0.092303,15.422386
[MO833] Paramount Iteration,6,86,0.092153,15.422344
[MO833] Paramount Iteration,7,86,0.092282,15.422415
[MO833] Paramount Iteration,0,86,0.091913,15.423249
[MO833] Paramount Iteration,5,87,0.419366,15.841600
[MO833] Paramount Iteration,1,87,0.419190,15.842224
[MO833] Paramount Iteration,4,87,0.419455,15.841643
[MO833] Paramount Iteration,0,87,0.419033,15.842348
[MO833] Paramount Iteration,3,87,0.419250,15.841715
[MO833] Paramount Iteration,2,87,0.419372,15.841767
[MO833] Paramount Iteration,7,87,0.419427,15.841867
[MO833] Paramount Iteration,6,87,0.419536,15.842015
[MO833] Paramount Iteration,1,88,0.091888,15.934165
[MO833] Paramount Iteration,0,88,0.091888,15.934305
[MO833] Paramount Iteration,2,88,0.091767,15.933574
[MO833] Paramount Iteration,5,88,0.092032,15.933717
[MO833] Paramount Iteration,3,88,0.091936,15.933733
[MO833] Paramount Iteration,6,88,0.091542,15.933590
[MO833] Paramount Iteration,4,88,0.092211,15.933864
[MO833] Paramount Iteration,7,88,0.092008,15.933910
[MO833] Paramount Iteration,4,89,0.091008,16.024890
[MO833] Paramount Iteration,5,89,0.091270,16.025077
[MO833] Paramount Iteration,0,89,0.091235,16.025737
[MO833] Paramount Iteration,1,89,0.091548,16.025786
[MO833] Paramount Iteration,2,89,0.091507,16.025112
[MO833] Paramount Iteration,3,89,0.091363,16.025136
[MO833] Paramount Iteration,6,89,0.091553,16.025245
[MO833] Paramount Iteration,7,89,0.091331,16.025263
[MO833] Paramount Iteration,0,90,0.419631,16.445437
[MO833] Paramount Iteration,1,90,0.419740,16.445561
[MO833] Paramount Iteration,4,90,0.420106,16.445025
[MO833] Paramount Iteration,3,90,0.419726,16.444939
[MO833] Paramount Iteration,2,90,0.419833,16.444969
[MO833] Paramount Iteration,5,90,0.420061,16.445204
[MO833] Paramount Iteration,6,90,0.419959,16.445306
[MO833] Paramount Iteration,7,90,0.420137,16.445409
[MO833] Paramount Iteration,3,91,0.092583,16.537604
[MO833] Paramount Iteration,2,91,0.092711,16.537690
[MO833] Paramount Iteration,4,91,0.092828,16.537882
[MO833] Paramount Iteration,5,91,0.092821,16.538065
[MO833] Paramount Iteration,1,91,0.093054,16.538662
[MO833] Paramount Iteration,6,91,0.092432,16.537845
[MO833] Paramount Iteration,7,91,0.092446,16.537872
[MO833] Paramount Iteration,0,91,0.093297,16.538851
[MO833] Paramount Iteration,0,92,0.092218,16.631137
[MO833] Paramount Iteration,1,92,0.092469,16.631181
[MO833] Paramount Iteration,4,92,0.092806,16.630719
[MO833] Paramount Iteration,5,92,0.092583,16.630689
[MO833] Paramount Iteration,3,92,0.092956,16.630633
[MO833] Paramount Iteration,2,92,0.093138,16.630848
[MO833] Paramount Iteration,6,92,0.093069,16.631023
[MO833] Paramount Iteration,7,92,0.093127,16.631009
[MO833] Paramount Iteration,0,93,0.091124,16.722386
[MO833] Paramount Iteration,1,93,0.091303,16.722494
[MO833] Paramount Iteration,4,93,0.091177,16.721904
[MO833] Paramount Iteration,3,93,0.091083,16.721795
[MO833] Paramount Iteration,5,93,0.091217,16.721986
[MO833] Paramount Iteration,7,93,0.090792,16.721830
[MO833] Paramount Iteration,2,93,0.091121,16.721991
[MO833] Paramount Iteration,6,93,0.090898,16.722011
[MO833] Paramount Iteration,0,94,0.418312,17.140809
[MO833] Paramount Iteration,1,94,0.418424,17.140958
[MO833] Paramount Iteration,3,94,0.418389,17.140263
[MO833] Paramount Iteration,2,94,0.418271,17.140284
[MO833] Paramount Iteration,6,94,0.418184,17.140234
[MO833] Paramount Iteration,4,94,0.418565,17.140498
[MO833] Paramount Iteration,7,94,0.418486,17.140348
[MO833] Paramount Iteration,5,94,0.418687,17.140703
[MO833] Paramount Iteration,0,95,0.091248,17.232170
[MO833] Paramount Iteration,1,95,0.091247,17.232252
[MO833] Paramount Iteration,4,95,0.091225,17.231757
[MO833] Paramount Iteration,5,95,0.090988,17.231732
[MO833] Paramount Iteration,3,95,0.091361,17.231703
[MO833] Paramount Iteration,2,95,0.091680,17.231973
[MO833] Paramount Iteration,7,95,0.091515,17.231909
[MO833] Paramount Iteration,6,95,0.091711,17.232050
[MO833] Paramount Iteration,5,96,0.090681,17.322491
[MO833] Paramount Iteration,1,96,0.090856,17.323135
[MO833] Paramount Iteration,4,96,0.090771,17.322537
[MO833] Paramount Iteration,0,96,0.090945,17.323237
[MO833] Paramount Iteration,2,96,0.090433,17.322428
[MO833] Paramount Iteration,3,96,0.090855,17.322639
[MO833] Paramount Iteration,6,96,0.090577,17.322659
[MO833] Paramount Iteration,7,96,0.090940,17.322883
[MO833] Paramount Iteration,0,97,0.091772,17.415097
[MO833] Paramount Iteration,1,97,0.091890,17.415072
[MO833] Paramount Iteration,3,97,0.091725,17.414403
[MO833] Paramount Iteration,4,97,0.092018,17.414565
[MO833] Paramount Iteration,5,97,0.092140,17.414705
[MO833] Paramount Iteration,2,97,0.092180,17.414639
[MO833] Paramount Iteration,7,97,0.092041,17.414945
[MO833] Paramount Iteration,6,97,0.092322,17.415080
[MO833] Paramount Iteration,4,98,0.420471,17.835068
[MO833] Paramount Iteration,1,98,0.420598,17.835750
[MO833] Paramount Iteration,5,98,0.420294,17.835068
[MO833] Paramount Iteration,2,98,0.420318,17.834978
[MO833] Paramount Iteration,6,98,0.419790,17.834902
[MO833] Paramount Iteration,3,98,0.420542,17.835021
[MO833] Paramount Iteration,7,98,0.420015,17.834992
[MO833] Paramount Iteration,0,98,0.420594,17.835701
[MO833] Paramount Iteration,5,99,0.091346,17.926491
[MO833] Paramount Iteration,1,99,0.091385,17.927183
[MO833] Paramount Iteration,4,99,0.091529,17.926628
[MO833] Paramount Iteration,3,99,0.091433,17.926521
[MO833] Paramount Iteration,6,99,0.091401,17.926465
[MO833] Paramount Iteration,2,99,0.091602,17.926609
[MO833] Paramount Iteration,7,99,0.091520,17.926540
[MO833] Paramount Iteration,0,99,0.091522,17.927487
     100   0.97370709   0.44128683    20.501842    22.403689    4.6861494 
[MO833] Paramount Iteration,2,100,0.124677,18.051305
[MO833] Paramount Iteration,6,100,0.124638,18.051227
[MO833] Paramount Iteration,4,100,0.124857,18.051504
[MO833] Paramount Iteration,1,100,0.124880,18.052112
[MO833] Paramount Iteration,3,100,0.124733,18.051329
[MO833] Paramount Iteration,7,100,0.124669,18.051227
[MO833] Paramount Iteration,5,100,0.124926,18.051497
[MO833] Paramount Iteration,0,100,0.124706,18.052260
Loop time of 17.0259 on 8 procs for 100 steps with 2048000 atoms

Performance: 6089.528 tau/day, 5.873 timesteps/s
97.7% CPU use with 8 MPI tasks x 1 OpenMP threads

MPI task timing breakdown:
Section |  min time  |  avg time  |  max time  |%varavg| %total
---------------------------------------------------------------
Pair    | 3.7368     | 3.8117     | 3.8957     |   2.5 | 22.39
Bond    | 1.8807     | 1.9039     | 1.9429     |   1.7 | 11.18
Neigh   | 7.3259     | 7.3369     | 7.3413     |   0.2 | 43.09
Comm    | 1.2549     | 1.3691     | 1.4677     |   5.8 |  8.04
Output  | 0.0018547  | 0.0020543  | 0.0022473  |   0.3 |  0.01
Modify  | 2.0335     | 2.0558     | 2.0892     |   1.5 | 12.07
Other   |            | 0.5465     |            |       |  3.21

Nlocal:    256000 ave 256061 max 255948 min
Histogram: 2 0 0 2 0 1 1 1 0 1
Nghost:    36331.9 ave 36383 max 36254 min
Histogram: 1 0 0 1 1 1 0 1 2 1
Neighs:    1.24622e+06 ave 1.24686e+06 max 1.24541e+06 min
Histogram: 1 0 2 0 1 0 0 1 1 2

Total # of neighbors = 9969775
Ave neighs/atom = 4.86805
Ave special neighs/atom = 1.98
Neighbor list builds = 25
Dangerous builds = 0
Total wall time: 0:00:18
[MO833] Beta,4,0.063434
[MO833] PI avg,4,0.170257,100
[MO833] Beta,1,0.063500
[MO833] Beta,3,0.063488
[MO833] PI avg,1,0.170262,100
[MO833] PI avg,3,0.170256,100
[MO833] Beta,0,0.063496
[MO833] PI avg,0,0.170264,100
[MO833] Total time,18.107464
[MO833] Beta,5,0.063508
[MO833] PI avg,5,0.170257,100
[MO833] Beta,7,0.063498
[MO833] PI avg,7,0.170254,100
[MO833] Beta,2,0.063513
[MO833] PI avg,2,0.170255,100
[MO833] Beta,6,0.063519
[MO833] PI avg,6,0.170254,100
