LAMMPS (3 Mar 2020)
OMP_NUM_THREADS environment is not set. Defaulting to 1 thread. (src/comm.cpp:94)
  using 1 OpenMP thread(s) per MPI task
Reading data file ...
  orthogonal box = (-27.5 -38.5 -36.3646) to (27.5 38.5 36.3615)
  2 by 4 by 2 MPI processor grid
  reading atoms ...
  32000 atoms
  reading velocities ...
  32000 velocities
  scanning bonds ...
  4 = max bonds/atom
  scanning angles ...
  8 = max angles/atom
  scanning dihedrals ...
  18 = max dihedrals/atom
  scanning impropers ...
  2 = max impropers/atom
  reading bonds ...
  27723 bonds
  reading angles ...
  40467 angles
  reading dihedrals ...
  56829 dihedrals
  reading impropers ...
  1034 impropers
Finding 1-2 1-3 1-4 neighbors ...
  special bond factors lj:   0          0          0         
  special bond factors coul: 0          0          0         
  4 = max # of 1-2 neighbors
  12 = max # of 1-3 neighbors
  24 = max # of 1-4 neighbors
  26 = max # of special neighbors
  special bonds CPU = 0.0112915 secs
  read_data CPU = 0.427372 secs
Replicating atoms ...
  orthogonal box = (-27.5 -38.5 -36.3646) to (27.5 38.5 36.3615)
  2 by 4 by 2 MPI processor grid
  32000 atoms
  27723 bonds
  40467 angles
  56829 dihedrals
  1034 impropers
Finding 1-2 1-3 1-4 neighbors ...
  special bond factors lj:   0          0          0         
  special bond factors coul: 0          0          0         
  4 = max # of 1-2 neighbors
  12 = max # of 1-3 neighbors
  24 = max # of 1-4 neighbors
  26 = max # of special neighbors
  special bonds CPU = 0.00719905 secs
  replicate CPU = 0.0486615 secs
Finding SHAKE clusters ...
  1617 = # of size 2 clusters
  3633 = # of size 3 clusters
  747 = # of size 4 clusters
  4233 = # of frozen angles
  find clusters CPU = 0.00552177 secs
PPPM initialization ...
  using 12-bit tables for long-range coulomb (src/kspace.cpp:332)
  G vector (1/distance) = 0.248835
  grid = 25 32 32
  stencil order = 5
  estimated absolute RMS force accuracy = 0.0355478
  estimated relative force accuracy = 0.000107051
  using double precision KISS FFT
  3d grid and FFT values/proc = 4914 1664
Neighbor list info ...
  update every 1 steps, delay 5 steps, check yes
  max neighbors/atom: 2000, page size: 100000
  master list distance cutoff = 12
  ghost atom cutoff = 12
  binsize = 6, bins = 10 13 13
  1 neighbor lists, perpetual/occasional/extra = 1 0 0
  (1) pair lj/charmm/coul/long, perpetual
      attributes: half, newton on
      pair build: half/bin/newton
      stencil: half/bin/3d/newton
      bin: standard
Setting up Verlet run ...
  Unit style    : real
  Current step  : 0
  Time step     : 2
Per MPI rank memory allocation (min/avg/max) = 21.86 | 21.97 | 22.45 Mbytes
---------------- Step        0 ----- CPU =      0.0000 (sec) ----------------
TotEng   =    -25356.2064 KinEng   =     21444.8313 Temp     =       299.0397 
PotEng   =    -46801.0377 E_bond   =      2537.9940 E_angle  =     10921.3742 
E_dihed  =      5211.7865 E_impro  =       213.5116 E_vdwl   =     -2307.8634 
E_coul   =    207025.8927 E_long   =   -270403.7333 Press    =      -149.3301 
Volume   =    307995.0335 
[MO833] Paramount Iteration,0,1,0.028461,0.620005
[MO833] Paramount Iteration,1,1,0.028461,0.620004
[MO833] Paramount Iteration,2,1,0.028490,0.620359
[MO833] Paramount Iteration,6,1,0.028506,0.620088
[MO833] Paramount Iteration,4,1,0.028457,0.620118
[MO833] Paramount Iteration,10,1,0.028508,0.620028
[MO833] Paramount Iteration,12,1,0.028494,0.616336
[MO833] Paramount Iteration,14,1,0.028505,0.616325
[MO833] Paramount Iteration,8,1,0.028485,0.620086
[MO833] Paramount Iteration,3,1,0.028488,0.620358
[MO833] Paramount Iteration,7,1,0.028508,0.620100
[MO833] Paramount Iteration,5,1,0.028457,0.620111
[MO833] Paramount Iteration,11,1,0.028508,0.620034
[MO833] Paramount Iteration,13,1,0.028493,0.616337
[MO833] Paramount Iteration,15,1,0.028505,0.616325
[MO833] Paramount Iteration,9,1,0.028485,0.620087
[MO833] Paramount Iteration,0,2,0.028451,0.648706
[MO833] Paramount Iteration,6,2,0.028625,0.648768
[MO833] Paramount Iteration,4,2,0.028690,0.648830
[MO833] Paramount Iteration,10,2,0.028660,0.648708
[MO833] Paramount Iteration,14,2,0.028602,0.644982
[MO833] Paramount Iteration,8,2,0.028677,0.648788
[MO833] Paramount Iteration,1,2,0.028680,0.648705
[MO833] Paramount Iteration,2,2,0.028669,0.649082
[MO833] Paramount Iteration,7,2,0.028656,0.648775
[MO833] Paramount Iteration,5,2,0.028653,0.648819
[MO833] Paramount Iteration,11,2,0.028624,0.648710
[MO833] Paramount Iteration,12,2,0.028678,0.645040
[MO833] Paramount Iteration,15,2,0.028635,0.644982
[MO833] Paramount Iteration,9,2,0.028643,0.648790
[MO833] Paramount Iteration,3,2,0.028707,0.649085
[MO833] Paramount Iteration,13,2,0.028642,0.645041
[MO833] Paramount Iteration,0,3,0.029083,0.677810
[MO833] Paramount Iteration,10,3,0.029031,0.677797
[MO833] Paramount Iteration,12,3,0.029020,0.674122
[MO833] Paramount Iteration,8,3,0.029071,0.677876
[MO833] Paramount Iteration,1,3,0.029040,0.677810
[MO833] Paramount Iteration,2,3,0.029061,0.678184
[MO833] Paramount Iteration,6,3,0.029100,0.677914
[MO833] Paramount Iteration,4,3,0.029101,0.677943
[MO833] Paramount Iteration,11,3,0.029077,0.677808
[MO833] Paramount Iteration,13,3,0.029063,0.674123
[MO833] Paramount Iteration,14,3,0.029053,0.674094
[MO833] Paramount Iteration,9,3,0.029042,0.677881
[MO833] Paramount Iteration,3,3,0.029092,0.678185
[MO833] Paramount Iteration,7,3,0.029131,0.677921
[MO833] Paramount Iteration,5,3,0.029069,0.677936
[MO833] Paramount Iteration,15,3,0.029093,0.674094
[MO833] Paramount Iteration,0,4,0.029114,0.706944
[MO833] Paramount Iteration,2,4,0.029102,0.707296
[MO833] Paramount Iteration,4,4,0.029109,0.707066
[MO833] Paramount Iteration,10,4,0.029120,0.706942
[MO833] Paramount Iteration,12,4,0.029080,0.703258
[MO833] Paramount Iteration,8,4,0.029081,0.707015
[MO833] Paramount Iteration,1,4,0.029072,0.706943
[MO833] Paramount Iteration,3,4,0.029079,0.707297
[MO833] Paramount Iteration,6,4,0.029068,0.707030
[MO833] Paramount Iteration,5,4,0.029082,0.707060
[MO833] Paramount Iteration,11,4,0.029087,0.706949
[MO833] Paramount Iteration,13,4,0.029120,0.703259
[MO833] Paramount Iteration,14,4,0.029077,0.703233
[MO833] Paramount Iteration,9,4,0.029123,0.707019
[MO833] Paramount Iteration,7,4,0.029100,0.707037
[MO833] Paramount Iteration,15,4,0.029118,0.703233
[MO833] Paramount Iteration,2,5,0.029301,0.736606
[MO833] Paramount Iteration,6,5,0.029209,0.736285
[MO833] Paramount Iteration,4,5,0.029248,0.736362
[MO833] Paramount Iteration,10,5,0.029209,0.736232
[MO833] Paramount Iteration,12,5,0.029223,0.732538
[MO833] Paramount Iteration,14,5,0.029222,0.732476
[MO833] Paramount Iteration,8,5,0.029253,0.736327
[MO833] Paramount Iteration,1,5,0.029320,0.736283
[MO833] Paramount Iteration,3,5,0.029278,0.736607
[MO833] Paramount Iteration,7,5,0.029240,0.736292
[MO833] Paramount Iteration,5,5,0.029280,0.736355
[MO833] Paramount Iteration,11,5,0.029267,0.736236
[MO833] Paramount Iteration,13,5,0.029264,0.732540
[MO833] Paramount Iteration,15,5,0.029189,0.732478
[MO833] Paramount Iteration,9,5,0.029300,0.736335
[MO833] Paramount Iteration,0,5,0.029047,0.736284
[MO833] Paramount Iteration,2,6,0.028882,0.765527
[MO833] Paramount Iteration,6,6,0.028891,0.765222
[MO833] Paramount Iteration,4,6,0.028892,0.765297
[MO833] Paramount Iteration,10,6,0.028920,0.765168
[MO833] Paramount Iteration,12,6,0.028876,0.761469
[MO833] Paramount Iteration,14,6,0.028948,0.761443
[MO833] Paramount Iteration,8,6,0.028918,0.765269
[MO833] Paramount Iteration,1,6,0.028873,0.765224
[MO833] Paramount Iteration,3,6,0.028911,0.765528
[MO833] Paramount Iteration,7,6,0.028921,0.765229
[MO833] Paramount Iteration,5,6,0.028923,0.765290
[MO833] Paramount Iteration,11,6,0.028887,0.765174
[MO833] Paramount Iteration,13,6,0.028918,0.761473
[MO833] Paramount Iteration,15,6,0.028916,0.761443
[MO833] Paramount Iteration,9,6,0.028892,0.765277
[MO833] Paramount Iteration,0,6,0.028708,0.765224
[MO833] Paramount Iteration,2,7,0.028917,0.794453
[MO833] Paramount Iteration,6,7,0.028898,0.794163
[MO833] Paramount Iteration,4,7,0.028901,0.794246
[MO833] Paramount Iteration,10,7,0.028860,0.794089
[MO833] Paramount Iteration,12,7,0.028936,0.790423
[MO833] Paramount Iteration,1,7,0.028853,0.794158
[MO833] Paramount Iteration,3,7,0.028893,0.794454
[MO833] Paramount Iteration,7,7,0.028926,0.794170
[MO833] Paramount Iteration,5,7,0.028935,0.794239
[MO833] Paramount Iteration,11,7,0.028900,0.794094
[MO833] Paramount Iteration,13,7,0.028905,0.790424
[MO833] Paramount Iteration,14,7,0.028926,0.790389
[MO833] Paramount Iteration,8,7,0.028871,0.794203
[MO833] Paramount Iteration,15,7,0.028892,0.790389
[MO833] Paramount Iteration,9,7,0.028921,0.794211
[MO833] Paramount Iteration,0,7,0.028930,0.794374
[MO833] Paramount Iteration,0,8,0.028937,0.823323
[MO833] Paramount Iteration,14,8,0.029135,0.819544
[MO833] Paramount Iteration,8,8,0.029147,0.823373
[MO833] Paramount Iteration,1,8,0.029065,0.823322
[MO833] Paramount Iteration,2,8,0.029229,0.823691
[MO833] Paramount Iteration,6,8,0.029157,0.823363
[MO833] Paramount Iteration,4,8,0.029185,0.823476
[MO833] Paramount Iteration,10,8,0.029211,0.823318
[MO833] Paramount Iteration,12,8,0.029144,0.819620
[MO833] Paramount Iteration,15,8,0.029103,0.819547
[MO833] Paramount Iteration,9,8,0.029116,0.823377
[MO833] Paramount Iteration,3,8,0.029207,0.823693
[MO833] Paramount Iteration,7,8,0.029186,0.823370
[MO833] Paramount Iteration,5,8,0.029219,0.823470
[MO833] Paramount Iteration,11,8,0.029173,0.823320
[MO833] Paramount Iteration,13,8,0.029177,0.819616
[MO833] Paramount Iteration,4,9,0.028909,0.852427
[MO833] Paramount Iteration,12,9,0.028963,0.848597
[MO833] Paramount Iteration,8,9,0.028960,0.852395
[MO833] Paramount Iteration,1,9,0.028962,0.852352
[MO833] Paramount Iteration,2,9,0.029015,0.852715
[MO833] Paramount Iteration,6,9,0.029006,0.852385
[MO833] Paramount Iteration,5,9,0.028942,0.852422
[MO833] Paramount Iteration,10,9,0.028944,0.852319
[MO833] Paramount Iteration,13,9,0.028931,0.848599
[MO833] Paramount Iteration,14,9,0.028986,0.848585
[MO833] Paramount Iteration,9,9,0.029005,0.852400
[MO833] Paramount Iteration,3,9,0.028986,0.852719
[MO833] Paramount Iteration,7,9,0.028969,0.852392
[MO833] Paramount Iteration,11,9,0.028982,0.852322
[MO833] Paramount Iteration,15,9,0.029019,0.848585
[MO833] Paramount Iteration,0,9,0.029011,0.852353
[MO833] Paramount Iteration,6,10,0.064489,0.916888
[MO833] Paramount Iteration,4,10,0.064514,0.916954
[MO833] Paramount Iteration,12,10,0.064510,0.913124
[MO833] Paramount Iteration,14,10,0.064439,0.913082
[MO833] Paramount Iteration,1,10,0.064453,0.916884
[MO833] Paramount Iteration,2,10,0.064457,0.917210
[MO833] Paramount Iteration,7,10,0.064453,0.916895
[MO833] Paramount Iteration,5,10,0.064487,0.916947
[MO833] Paramount Iteration,10,10,0.064499,0.916839
[MO833] Paramount Iteration,13,10,0.064477,0.913125
[MO833] Paramount Iteration,15,10,0.064482,0.913085
[MO833] Paramount Iteration,8,10,0.064486,0.916942
[MO833] Paramount Iteration,3,10,0.064487,0.917213
[MO833] Paramount Iteration,11,10,0.064464,0.916843
[MO833] Paramount Iteration,9,10,0.064529,0.916946
[MO833] Paramount Iteration,0,10,0.064310,0.916885
[MO833] Paramount Iteration,2,11,0.029177,0.946426
[MO833] Paramount Iteration,6,11,0.029202,0.946137
[MO833] Paramount Iteration,4,11,0.029204,0.946215
[MO833] Paramount Iteration,10,11,0.029231,0.946086
[MO833] Paramount Iteration,8,11,0.029175,0.946176
[MO833] Paramount Iteration,1,11,0.029182,0.946131
[MO833] Paramount Iteration,3,11,0.029208,0.946429
[MO833] Paramount Iteration,7,11,0.029237,0.946150
[MO833] Paramount Iteration,5,11,0.029241,0.946206
[MO833] Paramount Iteration,11,11,0.029200,0.946092
[MO833] Paramount Iteration,12,11,0.029217,0.942420
[MO833] Paramount Iteration,14,11,0.029236,0.942377
[MO833] Paramount Iteration,9,11,0.029223,0.946184
[MO833] Paramount Iteration,13,11,0.029277,0.942421
[MO833] Paramount Iteration,15,11,0.029277,0.942377
[MO833] Paramount Iteration,0,11,0.029245,0.946339
[MO833] Paramount Iteration,2,12,0.029142,0.975578
[MO833] Paramount Iteration,6,12,0.029127,0.975285
[MO833] Paramount Iteration,10,12,0.029127,0.975232
[MO833] Paramount Iteration,12,12,0.029107,0.971546
[MO833] Paramount Iteration,14,12,0.029082,0.971479
[MO833] Paramount Iteration,1,12,0.029084,0.975284
[MO833] Paramount Iteration,3,12,0.029119,0.975579
[MO833] Paramount Iteration,7,12,0.029087,0.975292
[MO833] Paramount Iteration,4,12,0.029119,0.975385
[MO833] Paramount Iteration,11,12,0.029091,0.975238
[MO833] Paramount Iteration,13,12,0.029072,0.971547
[MO833] Paramount Iteration,15,12,0.029039,0.971479
[MO833] Paramount Iteration,8,12,0.029158,0.975356
[MO833] Paramount Iteration,5,12,0.029155,0.975377
[MO833] Paramount Iteration,9,12,0.029125,0.975357
[MO833] Paramount Iteration,0,12,0.029150,0.975518
[MO833] Paramount Iteration,0,13,0.028963,1.004493
[MO833] Paramount Iteration,2,13,0.029232,1.004820
[MO833] Paramount Iteration,1,13,0.029125,1.004489
[MO833] Paramount Iteration,3,13,0.029209,1.004821
[MO833] Paramount Iteration,6,13,0.029227,1.004557
[MO833] Paramount Iteration,4,13,0.029183,1.004620
[MO833] Paramount Iteration,10,13,0.029235,1.004484
[MO833] Paramount Iteration,12,13,0.029228,1.000829
[MO833] Paramount Iteration,14,13,0.029288,1.000786
[MO833] Paramount Iteration,8,13,0.029166,1.004583
[MO833] Paramount Iteration,7,13,0.029260,1.004567
[MO833] Paramount Iteration,5,13,0.029217,1.004610
[MO833] Paramount Iteration,11,13,0.029200,1.004490
[MO833] Paramount Iteration,13,13,0.029267,1.000830
[MO833] Paramount Iteration,15,13,0.029256,1.000786
[MO833] Paramount Iteration,9,13,0.029206,1.004584
[MO833] Paramount Iteration,0,14,0.029175,1.033685
[MO833] Paramount Iteration,2,14,0.029177,1.034034
[MO833] Paramount Iteration,4,14,0.029167,1.033802
[MO833] Paramount Iteration,12,14,0.029129,1.030008
[MO833] Paramount Iteration,8,14,0.029175,1.033778
[MO833] Paramount Iteration,1,14,0.029135,1.033681
[MO833] Paramount Iteration,3,14,0.029203,1.034033
[MO833] Paramount Iteration,6,14,0.029153,1.033758
[MO833] Paramount Iteration,5,14,0.029133,1.033793
[MO833] Paramount Iteration,10,14,0.029202,1.033706
[MO833] Paramount Iteration,13,14,0.029165,1.030009
[MO833] Paramount Iteration,14,14,0.029194,1.029998
[MO833] Paramount Iteration,9,14,0.029145,1.033782
[MO833] Paramount Iteration,7,14,0.029187,1.033768
[MO833] Paramount Iteration,11,14,0.029166,1.033710
[MO833] Paramount Iteration,15,14,0.029161,1.029998
[MO833] Paramount Iteration,0,15,0.029295,1.062999
[MO833] Paramount Iteration,2,15,0.029302,1.063345
[MO833] Paramount Iteration,1,15,0.029242,1.062996
[MO833] Paramount Iteration,3,15,0.029279,1.063346
[MO833] Paramount Iteration,6,15,0.029242,1.063067
[MO833] Paramount Iteration,4,15,0.029311,1.063128
[MO833] Paramount Iteration,10,15,0.029295,1.063017
[MO833] Paramount Iteration,12,15,0.029315,1.059338
[MO833] Paramount Iteration,14,15,0.029234,1.059291
[MO833] Paramount Iteration,8,15,0.029304,1.063102
[MO833] Paramount Iteration,7,15,0.029274,1.063074
[MO833] Paramount Iteration,5,15,0.029278,1.063120
[MO833] Paramount Iteration,11,15,0.029261,1.063023
[MO833] Paramount Iteration,13,15,0.029287,1.059341
[MO833] Paramount Iteration,15,15,0.029276,1.059293
[MO833] Paramount Iteration,9,15,0.029269,1.063103
[MO833] Paramount Iteration,0,16,0.029414,1.092433
[MO833] Paramount Iteration,2,16,0.029390,1.092773
[MO833] Paramount Iteration,4,16,0.029380,1.092565
[MO833] Paramount Iteration,10,16,0.029387,1.092419
[MO833] Paramount Iteration,12,16,0.029384,1.088737
[MO833] Paramount Iteration,8,16,0.029368,1.092488
[MO833] Paramount Iteration,1,16,0.029372,1.092432
[MO833] Paramount Iteration,3,16,0.029433,1.092788
[MO833] Paramount Iteration,6,16,0.029389,1.092498
[MO833] Paramount Iteration,5,16,0.029418,1.092558
[MO833] Paramount Iteration,11,16,0.029352,1.092424
[MO833] Paramount Iteration,13,16,0.029355,1.088738
[MO833] Paramount Iteration,14,16,0.029359,1.088709
[MO833] Paramount Iteration,9,16,0.029339,1.092494
[MO833] Paramount Iteration,7,16,0.029417,1.092505
[MO833] Paramount Iteration,15,16,0.029399,1.088709
[MO833] Paramount Iteration,0,17,0.029153,1.121608
[MO833] Paramount Iteration,2,17,0.029131,1.121944
[MO833] Paramount Iteration,10,17,0.029165,1.121601
[MO833] Paramount Iteration,12,17,0.029141,1.117930
[MO833] Paramount Iteration,8,17,0.029137,1.121687
[MO833] Paramount Iteration,1,17,0.029099,1.121607
[MO833] Paramount Iteration,3,17,0.029152,1.121945
[MO833] Paramount Iteration,6,17,0.029157,1.121672
[MO833] Paramount Iteration,4,17,0.029147,1.121729
[MO833] Paramount Iteration,11,17,0.029130,1.121606
[MO833] Paramount Iteration,13,17,0.029180,1.117932
[MO833] Paramount Iteration,14,17,0.029124,1.117894
[MO833] Paramount Iteration,9,17,0.029178,1.121688
[MO833] Paramount Iteration,7,17,0.029120,1.121679
[MO833] Paramount Iteration,5,17,0.029112,1.121719
[MO833] Paramount Iteration,15,17,0.029165,1.117894
[MO833] Paramount Iteration,0,18,0.064070,1.185700
[MO833] Paramount Iteration,2,18,0.064046,1.186029
[MO833] Paramount Iteration,6,18,0.064036,1.185754
[MO833] Paramount Iteration,4,18,0.064075,1.185820
[MO833] Paramount Iteration,10,18,0.064030,1.185692
[MO833] Paramount Iteration,12,18,0.064063,1.182008
[MO833] Paramount Iteration,14,18,0.064038,1.181984
[MO833] Paramount Iteration,8,18,0.064012,1.185758
[MO833] Paramount Iteration,1,18,0.064029,1.185699
[MO833] Paramount Iteration,3,18,0.064075,1.186030
[MO833] Paramount Iteration,7,18,0.064070,1.185765
[MO833] Paramount Iteration,5,18,0.064042,1.185813
[MO833] Paramount Iteration,11,18,0.064072,1.185698
[MO833] Paramount Iteration,13,18,0.064033,1.182009
[MO833] Paramount Iteration,15,18,0.064073,1.181986
[MO833] Paramount Iteration,9,18,0.064056,1.185762
[MO833] Paramount Iteration,0,19,0.029267,1.214988
[MO833] Paramount Iteration,12,19,0.029265,1.211288
[MO833] Paramount Iteration,8,19,0.029229,1.215047
[MO833] Paramount Iteration,1,19,0.029189,1.214987
[MO833] Paramount Iteration,2,19,0.029315,1.215355
[MO833] Paramount Iteration,4,19,0.029255,1.215132
[MO833] Paramount Iteration,11,19,0.029239,1.214994
[MO833] Paramount Iteration,13,19,0.029231,1.211287
[MO833] Paramount Iteration,14,19,0.029238,1.211284
[MO833] Paramount Iteration,9,19,0.029273,1.215051
[MO833] Paramount Iteration,3,19,0.029290,1.215356
[MO833] Paramount Iteration,6,19,0.029301,1.215105
[MO833] Paramount Iteration,5,19,0.029295,1.215125
[MO833] Paramount Iteration,10,19,0.029275,1.214988
[MO833] Paramount Iteration,15,19,0.029279,1.211283
[MO833] Paramount Iteration,7,19,0.029332,1.215112
[MO833] Paramount Iteration,2,20,0.029026,1.244420
[MO833] Paramount Iteration,6,20,0.028978,1.244100
[MO833] Paramount Iteration,10,20,0.029013,1.244048
[MO833] Paramount Iteration,12,20,0.029005,1.240345
[MO833] Paramount Iteration,14,20,0.028935,1.240282
[MO833] Paramount Iteration,3,20,0.029056,1.244422
[MO833] Paramount Iteration,7,20,0.028940,1.244107
[MO833] Paramount Iteration,4,20,0.029040,1.244190
[MO833] Paramount Iteration,11,20,0.028986,1.244050
[MO833] Paramount Iteration,13,20,0.029049,1.240352
[MO833] Paramount Iteration,15,20,0.028981,1.240286
[MO833] Paramount Iteration,8,20,0.029086,1.244155
[MO833] Paramount Iteration,5,20,0.029007,1.244183
[MO833] Paramount Iteration,9,20,0.029055,1.244160
[MO833] Paramount Iteration,0,20,0.029300,1.244312
[MO833] Paramount Iteration,1,20,0.029256,1.244308
[MO833] Paramount Iteration,2,21,0.029155,1.273612
[MO833] Paramount Iteration,6,21,0.029190,1.273334
[MO833] Paramount Iteration,4,21,0.029201,1.273407
[MO833] Paramount Iteration,10,21,0.029167,1.273270
[MO833] Paramount Iteration,8,21,0.029160,1.273373
[MO833] Paramount Iteration,3,21,0.029184,1.273613
[MO833] Paramount Iteration,7,21,0.029221,1.273344
[MO833] Paramount Iteration,5,21,0.029164,1.273396
[MO833] Paramount Iteration,11,21,0.029206,1.273276
[MO833] Paramount Iteration,12,21,0.029248,1.269613
[MO833] Paramount Iteration,14,21,0.029220,1.269565
[MO833] Paramount Iteration,9,21,0.029201,1.273377
[MO833] Paramount Iteration,13,21,0.029217,1.269614
[MO833] Paramount Iteration,15,21,0.029263,1.269565
[MO833] Paramount Iteration,0,21,0.029232,1.273560
[MO833] Paramount Iteration,1,21,0.029199,1.273561
[MO833] Paramount Iteration,0,22,0.029187,1.302823
[MO833] Paramount Iteration,2,22,0.029524,1.303174
[MO833] Paramount Iteration,6,22,0.029550,1.302901
[MO833] Paramount Iteration,4,22,0.029528,1.302949
[MO833] Paramount Iteration,10,22,0.029516,1.302845
[MO833] Paramount Iteration,12,22,0.029471,1.299140
[MO833] Paramount Iteration,8,22,0.029506,1.302900
[MO833] Paramount Iteration,1,22,0.029246,1.302822
[MO833] Paramount Iteration,3,22,0.029547,1.303169
[MO833] Paramount Iteration,7,22,0.029519,1.302913
[MO833] Paramount Iteration,5,22,0.029497,1.302943
[MO833] Paramount Iteration,11,22,0.029556,1.302851
[MO833] Paramount Iteration,13,22,0.029510,1.299141
[MO833] Paramount Iteration,14,22,0.029550,1.299135
[MO833] Paramount Iteration,9,22,0.029473,1.302901
[MO833] Paramount Iteration,15,22,0.029517,1.299136
[MO833] Paramount Iteration,0,23,0.029507,1.332623
[MO833] Paramount Iteration,2,23,0.029765,1.332948
[MO833] Paramount Iteration,10,23,0.029703,1.332606
[MO833] Paramount Iteration,1,23,0.029776,1.332617
[MO833] Paramount Iteration,3,23,0.029747,1.332950
[MO833] Paramount Iteration,6,23,0.029770,1.332687
[MO833] Paramount Iteration,4,23,0.029748,1.332747
[MO833] Paramount Iteration,11,23,0.029743,1.332612
[MO833] Paramount Iteration,12,23,0.029816,1.328971
[MO833] Paramount Iteration,14,23,0.029722,1.328920
[MO833] Paramount Iteration,8,23,0.029796,1.332716
[MO833] Paramount Iteration,7,23,0.029736,1.332698
[MO833] Paramount Iteration,5,23,0.029783,1.332740
[MO833] Paramount Iteration,13,23,0.029788,1.328974
[MO833] Paramount Iteration,15,23,0.029763,1.328920
[MO833] Paramount Iteration,9,23,0.029763,1.332718
[MO833] Paramount Iteration,2,24,0.029393,1.362350
[MO833] Paramount Iteration,6,24,0.029321,1.362026
[MO833] Paramount Iteration,4,24,0.029341,1.362105
[MO833] Paramount Iteration,10,24,0.029355,1.361980
[MO833] Paramount Iteration,12,24,0.029245,1.358271
[MO833] Paramount Iteration,14,24,0.029239,1.358217
[MO833] Paramount Iteration,8,24,0.029342,1.362075
[MO833] Paramount Iteration,1,24,0.029354,1.362029
[MO833] Paramount Iteration,3,24,0.029371,1.362351
[MO833] Paramount Iteration,7,24,0.029282,1.362034
[MO833] Paramount Iteration,5,24,0.029313,1.362099
[MO833] Paramount Iteration,11,24,0.029318,1.361983
[MO833] Paramount Iteration,13,24,0.029283,1.358272
[MO833] Paramount Iteration,15,24,0.029285,1.358223
[MO833] Paramount Iteration,9,24,0.029317,1.362083
[MO833] Paramount Iteration,0,24,0.029587,1.362226
[MO833] Paramount Iteration,0,25,0.029270,1.391508
[MO833] Paramount Iteration,2,25,0.029449,1.391838
[MO833] Paramount Iteration,1,25,0.029401,1.391500
[MO833] Paramount Iteration,3,25,0.029476,1.391837
[MO833] Paramount Iteration,6,25,0.029499,1.391572
[MO833] Paramount Iteration,4,25,0.029488,1.391642
[MO833] Paramount Iteration,10,25,0.029512,1.391509
[MO833] Paramount Iteration,12,25,0.029528,1.387850
[MO833] Paramount Iteration,14,25,0.029550,1.387788
[MO833] Paramount Iteration,8,25,0.029505,1.391601
[MO833] Paramount Iteration,7,25,0.029529,1.391579
[MO833] Paramount Iteration,5,25,0.029518,1.391631
[MO833] Paramount Iteration,11,25,0.029477,1.391514
[MO833] Paramount Iteration,13,25,0.029565,1.387851
[MO833] Paramount Iteration,15,25,0.029515,1.387787
[MO833] Paramount Iteration,9,25,0.029473,1.391603
[MO833] Paramount Iteration,2,26,0.064828,1.456674
[MO833] Paramount Iteration,6,26,0.064769,1.456359
[MO833] Paramount Iteration,10,26,0.064739,1.456306
[MO833] Paramount Iteration,12,26,0.064723,1.452623
[MO833] Paramount Iteration,14,26,0.064696,1.452547
[MO833] Paramount Iteration,8,26,0.064764,1.456426
[MO833] Paramount Iteration,3,26,0.064805,1.456675
[MO833] Paramount Iteration,7,26,0.064735,1.456365
[MO833] Paramount Iteration,4,26,0.064763,1.456456
[MO833] Paramount Iteration,11,26,0.064777,1.456311
[MO833] Paramount Iteration,13,26,0.064757,1.452621
[MO833] Paramount Iteration,15,26,0.064744,1.452551
[MO833] Paramount Iteration,9,26,0.064814,1.456436
[MO833] Paramount Iteration,5,26,0.064800,1.456449
[MO833] Paramount Iteration,0,26,0.065051,1.456579
[MO833] Paramount Iteration,1,26,0.065009,1.456574
[MO833] Paramount Iteration,2,27,0.032408,1.489096
[MO833] Paramount Iteration,0,27,0.032192,1.488786
[MO833] Paramount Iteration,3,27,0.032383,1.489096
[MO833] Paramount Iteration,6,27,0.032437,1.488816
[MO833] Paramount Iteration,4,27,0.032396,1.488907
[MO833] Paramount Iteration,10,27,0.032387,1.488753
[MO833] Paramount Iteration,12,27,0.032441,1.485121
[MO833] Paramount Iteration,14,27,0.032439,1.485047
[MO833] Paramount Iteration,8,27,0.032378,1.488867
[MO833] Paramount Iteration,1,27,0.032154,1.488785
[MO833] Paramount Iteration,7,27,0.032401,1.488826
[MO833] Paramount Iteration,5,27,0.032434,1.488900
[MO833] Paramount Iteration,11,27,0.032426,1.488759
[MO833] Paramount Iteration,13,27,0.032494,1.485136
[MO833] Paramount Iteration,15,27,0.032481,1.485047
[MO833] Paramount Iteration,9,27,0.032420,1.488869
[MO833] Paramount Iteration,0,28,0.029381,1.518414
[MO833] Paramount Iteration,2,28,0.029642,1.518751
[MO833] Paramount Iteration,6,28,0.029655,1.518489
[MO833] Paramount Iteration,4,28,0.029581,1.518548
[MO833] Paramount Iteration,10,28,0.029607,1.518426
[MO833] Paramount Iteration,8,28,0.029580,1.518505
[MO833] Paramount Iteration,1,28,0.029546,1.518414
[MO833] Paramount Iteration,3,28,0.029615,1.518749
[MO833] Paramount Iteration,7,28,0.029622,1.518499
[MO833] Paramount Iteration,5,28,0.029619,1.518541
[MO833] Paramount Iteration,11,28,0.029651,1.518432
[MO833] Paramount Iteration,12,28,0.029571,1.514758
[MO833] Paramount Iteration,14,28,0.029617,1.514727
[MO833] Paramount Iteration,9,28,0.029621,1.518506
[MO833] Paramount Iteration,13,28,0.029617,1.514760
[MO833] Paramount Iteration,15,28,0.029658,1.514727
[MO833] Paramount Iteration,2,29,0.029310,1.548070
[MO833] Paramount Iteration,4,29,0.029244,1.547850
[MO833] Paramount Iteration,12,29,0.029215,1.544025
[MO833] Paramount Iteration,1,29,0.029259,1.547766
[MO833] Paramount Iteration,3,29,0.029326,1.548109
[MO833] Paramount Iteration,6,29,0.029277,1.547785
[MO833] Paramount Iteration,5,29,0.029282,1.547843
[MO833] Paramount Iteration,10,29,0.029235,1.547724
[MO833] Paramount Iteration,13,29,0.029252,1.544026
[MO833] Paramount Iteration,14,29,0.029240,1.544032
[MO833] Paramount Iteration,8,29,0.029254,1.547818
[MO833] Paramount Iteration,7,29,0.029247,1.547798
[MO833] Paramount Iteration,11,29,0.029276,1.547730
[MO833] Paramount Iteration,15,29,0.029281,1.544032
[MO833] Paramount Iteration,9,29,0.029299,1.547823
[MO833] Paramount Iteration,0,29,0.029334,1.547767
[MO833] Paramount Iteration,2,30,0.029627,1.577708
[MO833] Paramount Iteration,0,30,0.029408,1.577405
[MO833] Paramount Iteration,3,30,0.029580,1.577709
[MO833] Paramount Iteration,6,30,0.029635,1.577438
[MO833] Paramount Iteration,4,30,0.029626,1.577531
[MO833] Paramount Iteration,10,30,0.029587,1.577371
[MO833] Paramount Iteration,12,30,0.029669,1.573753
[MO833] Paramount Iteration,14,30,0.029560,1.573656
[MO833] Paramount Iteration,8,30,0.029614,1.577496
[MO833] Paramount Iteration,1,30,0.029538,1.577402
[MO833] Paramount Iteration,7,30,0.029600,1.577445
[MO833] Paramount Iteration,5,30,0.029659,1.577519
[MO833] Paramount Iteration,11,30,0.029629,1.577378
[MO833] Paramount Iteration,13,30,0.029708,1.573754
[MO833] Paramount Iteration,15,30,0.029603,1.573657
[MO833] Paramount Iteration,9,30,0.029654,1.577497
[MO833] Paramount Iteration,0,31,0.029486,1.607128
[MO833] Paramount Iteration,2,31,0.029773,1.607493
[MO833] Paramount Iteration,4,31,0.029683,1.607257
[MO833] Paramount Iteration,10,31,0.029695,1.607131
[MO833] Paramount Iteration,12,31,0.029620,1.603428
[MO833] Paramount Iteration,8,31,0.029639,1.607191
[MO833] Paramount Iteration,1,31,0.029647,1.607126
[MO833] Paramount Iteration,3,31,0.029751,1.607495
[MO833] Paramount Iteration,6,31,0.029791,1.607242
[MO833] Paramount Iteration,5,31,0.029715,1.607250
[MO833] Paramount Iteration,11,31,0.029738,1.607137
[MO833] Paramount Iteration,13,31,0.029657,1.603429
[MO833] Paramount Iteration,14,31,0.029704,1.603420
[MO833] Paramount Iteration,9,31,0.029680,1.607193
[MO833] Paramount Iteration,7,31,0.029757,1.607250
[MO833] Paramount Iteration,15,31,0.029745,1.603420
[MO833] Paramount Iteration,2,32,0.029274,1.636779
[MO833] Paramount Iteration,6,32,0.029214,1.636469
[MO833] Paramount Iteration,4,32,0.029263,1.636569
[MO833] Paramount Iteration,10,32,0.029226,1.636419
[MO833] Paramount Iteration,12,32,0.029244,1.632731
[MO833] Paramount Iteration,14,32,0.029217,1.632693
[MO833] Paramount Iteration,8,32,0.029329,1.636541
[MO833] Paramount Iteration,3,32,0.029254,1.636783
[MO833] Paramount Iteration,7,32,0.029177,1.636476
[MO833] Paramount Iteration,5,32,0.029297,1.636561
[MO833] Paramount Iteration,11,32,0.029260,1.636418
[MO833] Paramount Iteration,13,32,0.029283,1.632732
[MO833] Paramount Iteration,15,32,0.029250,1.632694
[MO833] Paramount Iteration,9,32,0.029301,1.636548
[MO833] Paramount Iteration,0,32,0.029356,1.636506
[MO833] Paramount Iteration,1,32,0.029560,1.636752
[MO833] Paramount Iteration,0,33,0.029515,1.666063
[MO833] Paramount Iteration,2,33,0.029628,1.666419
[MO833] Paramount Iteration,12,33,0.029578,1.662367
[MO833] Paramount Iteration,8,33,0.029571,1.666134
[MO833] Paramount Iteration,1,33,0.029273,1.666061
[MO833] Paramount Iteration,3,33,0.029607,1.666421
[MO833] Paramount Iteration,6,33,0.029670,1.666153
[MO833] Paramount Iteration,4,33,0.029597,1.666216
[MO833] Paramount Iteration,10,33,0.029590,1.666069
[MO833] Paramount Iteration,13,33,0.029618,1.662368
[MO833] Paramount Iteration,14,33,0.029598,1.662351
[MO833] Paramount Iteration,9,33,0.029539,1.666138
[MO833] Paramount Iteration,7,33,0.029633,1.666160
[MO833] Paramount Iteration,5,33,0.029634,1.666210
[MO833] Paramount Iteration,11,33,0.029630,1.666072
[MO833] Paramount Iteration,15,33,0.029638,1.662351
[MO833] Paramount Iteration,0,34,0.029550,1.695636
[MO833] Paramount Iteration,2,34,0.029554,1.695982
[MO833] Paramount Iteration,4,34,0.029492,1.695763
[MO833] Paramount Iteration,8,34,0.029576,1.695733
[MO833] Paramount Iteration,1,34,0.029327,1.695635
[MO833] Paramount Iteration,3,34,0.029529,1.695981
[MO833] Paramount Iteration,6,34,0.029540,1.695711
[MO833] Paramount Iteration,5,34,0.029525,1.695754
[MO833] Paramount Iteration,10,34,0.029503,1.695650
[MO833] Paramount Iteration,12,34,0.029542,1.691966
[MO833] Paramount Iteration,14,34,0.029527,1.691941
[MO833] Paramount Iteration,9,34,0.029543,1.695734
[MO833] Paramount Iteration,7,34,0.029505,1.695721
[MO833] Paramount Iteration,11,34,0.029559,1.695655
[MO833] Paramount Iteration,13,34,0.029581,1.691967
[MO833] Paramount Iteration,15,34,0.029568,1.691941
[MO833] Paramount Iteration,0,35,0.029517,1.725174
[MO833] Paramount Iteration,2,35,0.029496,1.725485
[MO833] Paramount Iteration,6,35,0.029455,1.725185
[MO833] Paramount Iteration,4,35,0.029473,1.725291
[MO833] Paramount Iteration,10,35,0.029439,1.725153
[MO833] Paramount Iteration,12,35,0.029473,1.721499
[MO833] Paramount Iteration,14,35,0.029399,1.721401
[MO833] Paramount Iteration,8,35,0.029500,1.725256
[MO833] Paramount Iteration,1,35,0.029297,1.725174
[MO833] Paramount Iteration,3,35,0.029475,1.725488
[MO833] Paramount Iteration,7,35,0.029416,1.725192
[MO833] Paramount Iteration,5,35,0.029508,1.725280
[MO833] Paramount Iteration,11,35,0.029481,1.725159
[MO833] Paramount Iteration,13,35,0.029512,1.721500
[MO833] Paramount Iteration,15,35,0.029439,1.721401
[MO833] Paramount Iteration,9,35,0.029466,1.725257
[MO833] Paramount Iteration,0,36,0.064959,1.790167
[MO833] Paramount Iteration,2,36,0.065002,1.790500
[MO833] Paramount Iteration,6,36,0.065014,1.790216
[MO833] Paramount Iteration,4,36,0.064946,1.790291
[MO833] Paramount Iteration,8,36,0.064982,1.790259
[MO833] Paramount Iteration,1,36,0.064721,1.790166
[MO833] Paramount Iteration,3,36,0.064977,1.790499
[MO833] Paramount Iteration,7,36,0.064979,1.790226
[MO833] Paramount Iteration,5,36,0.064983,1.790283
[MO833] Paramount Iteration,10,36,0.064958,1.790174
[MO833] Paramount Iteration,12,36,0.064944,1.786498
[MO833] Paramount Iteration,14,36,0.064982,1.786445
[MO833] Paramount Iteration,9,36,0.064938,1.790260
[MO833] Paramount Iteration,11,36,0.064999,1.790180
[MO833] Paramount Iteration,13,36,0.064982,1.786499
[MO833] Paramount Iteration,15,36,0.065022,1.786445
[MO833] Paramount Iteration,0,37,0.029110,1.819299
[MO833] Paramount Iteration,2,37,0.029135,1.819646
[MO833] Paramount Iteration,4,37,0.029067,1.819415
[MO833] Paramount Iteration,1,37,0.028893,1.819295
[MO833] Paramount Iteration,3,37,0.029108,1.819644
[MO833] Paramount Iteration,6,37,0.029133,1.819371
[MO833] Paramount Iteration,5,37,0.029108,1.819409
[MO833] Paramount Iteration,10,37,0.029084,1.819320
[MO833] Paramount Iteration,12,37,0.029077,1.815635
[MO833] Paramount Iteration,14,37,0.029102,1.815610
[MO833] Paramount Iteration,8,37,0.029125,1.819405
[MO833] Paramount Iteration,7,37,0.029102,1.819386
[MO833] Paramount Iteration,11,37,0.029126,1.819326
[MO833] Paramount Iteration,13,37,0.029120,1.815639
[MO833] Paramount Iteration,15,37,0.029143,1.815610
[MO833] Paramount Iteration,9,37,0.029092,1.819406
[MO833] Paramount Iteration,0,38,0.029310,1.848628
[MO833] Paramount Iteration,2,38,0.029318,1.848971
[MO833] Paramount Iteration,8,38,0.029297,1.848720
[MO833] Paramount Iteration,1,38,0.029078,1.848627
[MO833] Paramount Iteration,3,38,0.029294,1.848972
[MO833] Paramount Iteration,6,38,0.029308,1.848701
[MO833] Paramount Iteration,4,38,0.029308,1.848785
[MO833] Paramount Iteration,10,38,0.029258,1.848640
[MO833] Paramount Iteration,12,38,0.029262,1.844959
[MO833] Paramount Iteration,14,38,0.029251,1.844933
[MO833] Paramount Iteration,9,38,0.029263,1.848721
[MO833] Paramount Iteration,7,38,0.029269,1.848712
[MO833] Paramount Iteration,5,38,0.029349,1.848778
[MO833] Paramount Iteration,11,38,0.029299,1.848646
[MO833] Paramount Iteration,13,38,0.029302,1.844960
[MO833] Paramount Iteration,15,38,0.029302,1.844933
[MO833] Paramount Iteration,0,39,0.029231,1.877882
[MO833] Paramount Iteration,2,39,0.029230,1.878211
[MO833] Paramount Iteration,4,39,0.029168,1.878002
[MO833] Paramount Iteration,10,39,0.029170,1.877872
[MO833] Paramount Iteration,8,39,0.029235,1.877971
[MO833] Paramount Iteration,1,39,0.028995,1.877882
[MO833] Paramount Iteration,3,39,0.029207,1.878212
[MO833] Paramount Iteration,6,39,0.029230,1.877952
[MO833] Paramount Iteration,5,39,0.029200,1.877992
[MO833] Paramount Iteration,11,39,0.029211,1.877879
[MO833] Paramount Iteration,12,39,0.029194,1.874208
[MO833] Paramount Iteration,14,39,0.029175,1.874165
[MO833] Paramount Iteration,9,39,0.029205,1.877972
[MO833] Paramount Iteration,7,39,0.029188,1.877959
[MO833] Paramount Iteration,13,39,0.029234,1.874210
[MO833] Paramount Iteration,15,39,0.029214,1.874165
[MO833] Paramount Iteration,0,40,0.029005,1.906909
[MO833] Paramount Iteration,2,40,0.029024,1.907244
[MO833] Paramount Iteration,8,40,0.028999,1.906989
[MO833] Paramount Iteration,1,40,0.028778,1.906908
[MO833] Paramount Iteration,3,40,0.029003,1.907246
[MO833] Paramount Iteration,6,40,0.029010,1.906981
[MO833] Paramount Iteration,4,40,0.028988,1.907047
[MO833] Paramount Iteration,10,40,0.028976,1.906907
[MO833] Paramount Iteration,12,40,0.028970,1.903234
[MO833] Paramount Iteration,14,40,0.028974,1.903197
[MO833] Paramount Iteration,9,40,0.028968,1.906992
[MO833] Paramount Iteration,7,40,0.028969,1.906988
[MO833] Paramount Iteration,5,40,0.029026,1.907040
[MO833] Paramount Iteration,11,40,0.029016,1.906913
[MO833] Paramount Iteration,13,40,0.029011,1.903236
[MO833] Paramount Iteration,15,40,0.029014,1.903197
[MO833] Paramount Iteration,0,41,0.029395,1.936322
[MO833] Paramount Iteration,2,41,0.029393,1.936649
[MO833] Paramount Iteration,4,41,0.029355,1.936454
[MO833] Paramount Iteration,10,41,0.029346,1.936314
[MO833] Paramount Iteration,12,41,0.029373,1.932625
[MO833] Paramount Iteration,8,41,0.029373,1.936383
[MO833] Paramount Iteration,1,41,0.029182,1.936321
[MO833] Paramount Iteration,3,41,0.029370,1.936650
[MO833] Paramount Iteration,6,41,0.029381,1.936377
[MO833] Paramount Iteration,5,41,0.029393,1.936448
[MO833] Paramount Iteration,11,41,0.029386,1.936320
[MO833] Paramount Iteration,13,41,0.029339,1.932626
[MO833] Paramount Iteration,14,41,0.029350,1.932608
[MO833] Paramount Iteration,9,41,0.029342,1.936387
[MO833] Paramount Iteration,7,41,0.029345,1.936388
[MO833] Paramount Iteration,15,41,0.029390,1.932608
[MO833] Paramount Iteration,0,42,0.029191,1.965537
[MO833] Paramount Iteration,12,42,0.029199,1.961842
[MO833] Paramount Iteration,8,42,0.029192,1.965597
[MO833] Paramount Iteration,1,42,0.028979,1.965536
[MO833] Paramount Iteration,2,42,0.029208,1.965895
[MO833] Paramount Iteration,6,42,0.029238,1.965635
[MO833] Paramount Iteration,4,42,0.029165,1.965668
[MO833] Paramount Iteration,10,42,0.029162,1.965533
[MO833] Paramount Iteration,13,42,0.029166,1.961843
[MO833] Paramount Iteration,14,42,0.029156,1.961822
[MO833] Paramount Iteration,9,42,0.029161,1.965600
[MO833] Paramount Iteration,3,42,0.029237,1.965896
[MO833] Paramount Iteration,7,42,0.029199,1.965642
[MO833] Paramount Iteration,5,42,0.029197,1.965661
[MO833] Paramount Iteration,11,42,0.029201,1.965538
[MO833] Paramount Iteration,15,42,0.029199,1.961825
[MO833] Paramount Iteration,0,43,0.029576,1.995132
[MO833] Paramount Iteration,2,43,0.029500,1.995433
[MO833] Paramount Iteration,6,43,0.029518,1.995174
[MO833] Paramount Iteration,4,43,0.029543,1.995265
[MO833] Paramount Iteration,10,43,0.029514,1.995105
[MO833] Paramount Iteration,14,43,0.029509,1.991392
[MO833] Paramount Iteration,8,43,0.029591,1.995210
[MO833] Paramount Iteration,1,43,0.029331,1.995132
[MO833] Paramount Iteration,3,43,0.029529,1.995435
[MO833] Paramount Iteration,7,43,0.029476,1.995181
[MO833] Paramount Iteration,5,43,0.029580,1.995259
[MO833] Paramount Iteration,11,43,0.029554,1.995111
[MO833] Paramount Iteration,12,43,0.029597,1.991452
[MO833] Paramount Iteration,15,43,0.029551,1.991392
[MO833] Paramount Iteration,9,43,0.029558,1.995213
[MO833] Paramount Iteration,13,43,0.029569,1.991453
[MO833] Paramount Iteration,0,44,0.029576,2.024736
[MO833] Paramount Iteration,2,44,0.029605,2.025080
[MO833] Paramount Iteration,1,44,0.029361,2.024729
[MO833] Paramount Iteration,3,44,0.029634,2.025080
[MO833] Paramount Iteration,6,44,0.029612,2.024807
[MO833] Paramount Iteration,4,44,0.029557,2.024875
[MO833] Paramount Iteration,10,44,0.029563,2.024748
[MO833] Paramount Iteration,12,44,0.029613,2.021081
[MO833] Paramount Iteration,8,44,0.029600,2.024833
[MO833] Paramount Iteration,7,44,0.029578,2.024821
[MO833] Paramount Iteration,5,44,0.029589,2.024865
[MO833] Paramount Iteration,11,44,0.029619,2.024754
[MO833] Paramount Iteration,13,44,0.029584,2.021082
[MO833] Paramount Iteration,14,44,0.029604,2.021056
[MO833] Paramount Iteration,9,44,0.029564,2.024834
[MO833] Paramount Iteration,15,44,0.029644,2.021056
[MO833] Paramount Iteration,0,45,0.065054,2.089805
[MO833] Paramount Iteration,2,45,0.065017,2.090133
[MO833] Paramount Iteration,6,45,0.065028,2.089855
[MO833] Paramount Iteration,4,45,0.064996,2.089925
[MO833] Paramount Iteration,10,45,0.064996,2.089805
[MO833] Paramount Iteration,12,45,0.065045,2.086138
[MO833] Paramount Iteration,8,45,0.065060,2.089910
[MO833] Paramount Iteration,1,45,0.064821,2.089800
[MO833] Paramount Iteration,3,45,0.065045,2.090134
[MO833] Paramount Iteration,7,45,0.064995,2.089869
[MO833] Paramount Iteration,5,45,0.065034,2.089918
[MO833] Paramount Iteration,11,45,0.065035,2.089811
[MO833] Paramount Iteration,13,45,0.065018,2.086140
[MO833] Paramount Iteration,14,45,0.064986,2.086104
[MO833] Paramount Iteration,9,45,0.065025,2.089912
[MO833] Paramount Iteration,15,45,0.065027,2.086104
[MO833] Paramount Iteration,0,46,0.029175,2.119000
[MO833] Paramount Iteration,2,46,0.029161,2.119336
[MO833] Paramount Iteration,1,46,0.028931,2.118997
[MO833] Paramount Iteration,3,46,0.029187,2.119334
[MO833] Paramount Iteration,6,46,0.029194,2.119068
[MO833] Paramount Iteration,4,46,0.029152,2.119130
[MO833] Paramount Iteration,10,46,0.029172,2.119039
[MO833] Paramount Iteration,12,46,0.029185,2.115337
[MO833] Paramount Iteration,14,46,0.029122,2.115283
[MO833] Paramount Iteration,8,46,0.029170,2.119102
[MO833] Paramount Iteration,7,46,0.029155,2.119075
[MO833] Paramount Iteration,5,46,0.029186,2.119121
[MO833] Paramount Iteration,11,46,0.029214,2.119046
[MO833] Paramount Iteration,13,46,0.029158,2.115340
[MO833] Paramount Iteration,15,46,0.029160,2.115283
[MO833] Paramount Iteration,9,46,0.029139,2.119106
[MO833] Paramount Iteration,0,47,0.029345,2.148362
[MO833] Paramount Iteration,2,47,0.029336,2.148711
[MO833] Paramount Iteration,6,47,0.029358,2.148442
[MO833] Paramount Iteration,4,47,0.029305,2.148492
[MO833] Paramount Iteration,10,47,0.029266,2.148359
[MO833] Paramount Iteration,12,47,0.029323,2.144674
[MO833] Paramount Iteration,14,47,0.029299,2.144639
[MO833] Paramount Iteration,8,47,0.029318,2.148442
[MO833] Paramount Iteration,1,47,0.029106,2.148360
[MO833] Paramount Iteration,3,47,0.029365,2.148712
[MO833] Paramount Iteration,7,47,0.029317,2.148449
[MO833] Paramount Iteration,5,47,0.029343,2.148485
[MO833] Paramount Iteration,11,47,0.029303,2.148365
[MO833] Paramount Iteration,13,47,0.029293,2.144676
[MO833] Paramount Iteration,15,47,0.029338,2.144639
[MO833] Paramount Iteration,9,47,0.029283,2.148443
[MO833] Paramount Iteration,0,48,0.029199,2.177599
[MO833] Paramount Iteration,2,48,0.029175,2.177922
[MO833] Paramount Iteration,1,48,0.028952,2.177592
[MO833] Paramount Iteration,3,48,0.029203,2.177923
[MO833] Paramount Iteration,6,48,0.029198,2.177654
[MO833] Paramount Iteration,4,48,0.029196,2.177741
[MO833] Paramount Iteration,10,48,0.029169,2.177586
[MO833] Paramount Iteration,12,48,0.029249,2.173940
[MO833] Paramount Iteration,14,48,0.029195,2.173892
[MO833] Paramount Iteration,8,48,0.029236,2.177697
[MO833] Paramount Iteration,7,48,0.029162,2.177665
[MO833] Paramount Iteration,5,48,0.029228,2.177729
[MO833] Paramount Iteration,11,48,0.029209,2.177592
[MO833] Paramount Iteration,13,48,0.029220,2.173942
[MO833] Paramount Iteration,15,48,0.029232,2.173892
[MO833] Paramount Iteration,9,48,0.029202,2.177697
[MO833] Paramount Iteration,0,49,0.029270,2.206884
[MO833] Paramount Iteration,2,49,0.029260,2.207218
[MO833] Paramount Iteration,4,49,0.029214,2.207006
[MO833] Paramount Iteration,10,49,0.029226,2.206874
[MO833] Paramount Iteration,12,49,0.029226,2.203182
[MO833] Paramount Iteration,8,49,0.029250,2.206965
[MO833] Paramount Iteration,1,49,0.029041,2.206883
[MO833] Paramount Iteration,3,49,0.029288,2.207220
[MO833] Paramount Iteration,6,49,0.029280,2.206955
[MO833] Paramount Iteration,5,49,0.029250,2.207000
[MO833] Paramount Iteration,11,49,0.029265,2.206880
[MO833] Paramount Iteration,13,49,0.029196,2.203183
[MO833] Paramount Iteration,14,49,0.029215,2.203166
[MO833] Paramount Iteration,9,49,0.029218,2.206966
[MO833] Paramount Iteration,7,49,0.029242,2.206962
[MO833] Paramount Iteration,15,49,0.029255,2.203166
---------------- Step       50 ----- CPU =      1.6536 (sec) ----------------
TotEng   =    -25330.0317 KinEng   =     21501.0005 Temp     =       299.8229 
PotEng   =    -46831.0321 E_bond   =      2471.7035 E_angle  =     10836.5102 
E_dihed  =      5239.6319 E_impro  =       227.1218 E_vdwl   =     -1993.2873 
E_coul   =    206797.6802 E_long   =   -270410.3926 Press    =       237.6571 
Volume   =    308031.6762 
[MO833] Paramount Iteration,0,50,0.038908,2.245809
[MO833] Paramount Iteration,6,50,0.038883,2.245855
[MO833] Paramount Iteration,4,50,0.038857,2.245914
[MO833] Paramount Iteration,12,50,0.038892,2.242092
[MO833] Paramount Iteration,8,50,0.038887,2.245874
[MO833] Paramount Iteration,1,50,0.038677,2.245795
[MO833] Paramount Iteration,2,50,0.038916,2.246176
[MO833] Paramount Iteration,7,50,0.038842,2.245862
[MO833] Paramount Iteration,5,50,0.038892,2.245907
[MO833] Paramount Iteration,10,50,0.038872,2.245808
[MO833] Paramount Iteration,13,50,0.038860,2.242093
[MO833] Paramount Iteration,14,50,0.038831,2.242058
[MO833] Paramount Iteration,9,50,0.038851,2.245875
[MO833] Paramount Iteration,3,50,0.038944,2.246176
[MO833] Paramount Iteration,11,50,0.038914,2.245816
[MO833] Paramount Iteration,15,50,0.038870,2.242058
[MO833] Paramount Iteration,0,51,0.029150,2.274962
[MO833] Paramount Iteration,2,51,0.029093,2.275308
[MO833] Paramount Iteration,1,51,0.028938,2.274962
[MO833] Paramount Iteration,3,51,0.029122,2.275309
[MO833] Paramount Iteration,6,51,0.029179,2.275050
[MO833] Paramount Iteration,4,51,0.029138,2.275104
[MO833] Paramount Iteration,10,51,0.029091,2.274955
[MO833] Paramount Iteration,12,51,0.029174,2.271279
[MO833] Paramount Iteration,14,51,0.029125,2.271239
[MO833] Paramount Iteration,8,51,0.029138,2.275024
[MO833] Paramount Iteration,7,51,0.029137,2.275057
[MO833] Paramount Iteration,5,51,0.029177,2.275098
[MO833] Paramount Iteration,11,51,0.029132,2.274962
[MO833] Paramount Iteration,13,51,0.029144,2.271281
[MO833] Paramount Iteration,15,51,0.029168,2.271241
[MO833] Paramount Iteration,9,51,0.029105,2.275027
[MO833] Paramount Iteration,0,52,0.029534,2.304514
[MO833] Paramount Iteration,2,52,0.029507,2.304857
[MO833] Paramount Iteration,1,52,0.029314,2.304513
[MO833] Paramount Iteration,3,52,0.029537,2.304858
[MO833] Paramount Iteration,6,52,0.029522,2.304588
[MO833] Paramount Iteration,4,52,0.029493,2.304651
[MO833] Paramount Iteration,10,52,0.029490,2.304526
[MO833] Paramount Iteration,12,52,0.029559,2.300853
[MO833] Paramount Iteration,14,52,0.029525,2.300822
[MO833] Paramount Iteration,8,52,0.029560,2.304609
[MO833] Paramount Iteration,7,52,0.029485,2.304598
[MO833] Paramount Iteration,5,52,0.029513,2.304638
[MO833] Paramount Iteration,11,52,0.029549,2.304532
[MO833] Paramount Iteration,13,52,0.029530,2.300857
[MO833] Paramount Iteration,15,52,0.029563,2.300821
[MO833] Paramount Iteration,9,52,0.029510,2.304610
[MO833] Paramount Iteration,0,53,0.029465,2.333998
[MO833] Paramount Iteration,2,53,0.029448,2.334346
[MO833] Paramount Iteration,1,53,0.029201,2.333994
[MO833] Paramount Iteration,3,53,0.029471,2.334341
[MO833] Paramount Iteration,6,53,0.029465,2.334074
[MO833] Paramount Iteration,4,53,0.029433,2.334133
[MO833] Paramount Iteration,10,53,0.029442,2.334025
[MO833] Paramount Iteration,12,53,0.029443,2.330316
[MO833] Paramount Iteration,14,53,0.029427,2.330311
[MO833] Paramount Iteration,8,53,0.029466,2.334099
[MO833] Paramount Iteration,7,53,0.029429,2.334085
[MO833] Paramount Iteration,5,53,0.029470,2.334127
[MO833] Paramount Iteration,11,53,0.029482,2.334031
[MO833] Paramount Iteration,13,53,0.029412,2.330317
[MO833] Paramount Iteration,15,53,0.029466,2.330309
[MO833] Paramount Iteration,9,53,0.029419,2.334100
[MO833] Paramount Iteration,0,54,0.065398,2.399413
[MO833] Paramount Iteration,2,54,0.065379,2.399761
[MO833] Paramount Iteration,10,54,0.065313,2.399401
[MO833] Paramount Iteration,8,54,0.065362,2.399482
[MO833] Paramount Iteration,1,54,0.065179,2.399413
[MO833] Paramount Iteration,3,54,0.065409,2.399763
[MO833] Paramount Iteration,6,54,0.065401,2.399498
[MO833] Paramount Iteration,4,54,0.065366,2.399552
[MO833] Paramount Iteration,11,54,0.065352,2.399407
[MO833] Paramount Iteration,12,54,0.065402,2.395734
[MO833] Paramount Iteration,14,54,0.065315,2.395682
[MO833] Paramount Iteration,9,54,0.065331,2.399484
[MO833] Paramount Iteration,7,54,0.065361,2.399505
[MO833] Paramount Iteration,5,54,0.065401,2.399545
[MO833] Paramount Iteration,13,54,0.065370,2.395735
[MO833] Paramount Iteration,15,54,0.065359,2.395687
[MO833] Paramount Iteration,0,55,0.029541,2.428975
[MO833] Paramount Iteration,2,55,0.029482,2.429287
[MO833] Paramount Iteration,6,55,0.029504,2.429020
[MO833] Paramount Iteration,4,55,0.029496,2.429095
[MO833] Paramount Iteration,10,55,0.029503,2.428960
[MO833] Paramount Iteration,8,55,0.029549,2.429054
[MO833] Paramount Iteration,1,55,0.029317,2.428974
[MO833] Paramount Iteration,3,55,0.029511,2.429287
[MO833] Paramount Iteration,7,55,0.029475,2.429036
[MO833] Paramount Iteration,5,55,0.029525,2.429087
[MO833] Paramount Iteration,11,55,0.029542,2.428967
[MO833] Paramount Iteration,12,55,0.029529,2.425297
[MO833] Paramount Iteration,14,55,0.029516,2.425257
[MO833] Paramount Iteration,9,55,0.029515,2.429055
[MO833] Paramount Iteration,13,55,0.029496,2.425299
[MO833] Paramount Iteration,15,55,0.029554,2.425255
[MO833] Paramount Iteration,0,56,0.029454,2.458458
[MO833] Paramount Iteration,2,56,0.029456,2.458781
[MO833] Paramount Iteration,10,56,0.029428,2.458450
[MO833] Paramount Iteration,1,56,0.029240,2.458450
[MO833] Paramount Iteration,3,56,0.029485,2.458782
[MO833] Paramount Iteration,6,56,0.029478,2.458519
[MO833] Paramount Iteration,4,56,0.029437,2.458587
[MO833] Paramount Iteration,11,56,0.029468,2.458455
[MO833] Paramount Iteration,12,56,0.029471,2.454785
[MO833] Paramount Iteration,14,56,0.029409,2.454726
[MO833] Paramount Iteration,8,56,0.029486,2.458559
[MO833] Paramount Iteration,7,56,0.029439,2.458526
[MO833] Paramount Iteration,5,56,0.029472,2.458579
[MO833] Paramount Iteration,13,56,0.029441,2.454787
[MO833] Paramount Iteration,15,56,0.029450,2.454726
[MO833] Paramount Iteration,9,56,0.029453,2.458560
[MO833] Paramount Iteration,0,57,0.029884,2.488356
[MO833] Paramount Iteration,2,57,0.029881,2.488699
[MO833] Paramount Iteration,1,57,0.029652,2.488354
[MO833] Paramount Iteration,3,57,0.029907,2.488698
[MO833] Paramount Iteration,6,57,0.029900,2.488435
[MO833] Paramount Iteration,4,57,0.029858,2.488495
[MO833] Paramount Iteration,10,57,0.029867,2.488374
[MO833] Paramount Iteration,12,57,0.029898,2.484697
[MO833] Paramount Iteration,14,57,0.029891,2.484672
[MO833] Paramount Iteration,8,57,0.029871,2.488452
[MO833] Paramount Iteration,7,57,0.029869,2.488448
[MO833] Paramount Iteration,5,57,0.029890,2.488486
[MO833] Paramount Iteration,11,57,0.029908,2.488381
[MO833] Paramount Iteration,13,57,0.029868,2.484698
[MO833] Paramount Iteration,15,57,0.029929,2.484672
[MO833] Paramount Iteration,9,57,0.029836,2.488453
[MO833] Paramount Iteration,0,58,0.029545,2.517920
[MO833] Paramount Iteration,2,58,0.029517,2.518254
[MO833] Paramount Iteration,1,58,0.029330,2.517919
[MO833] Paramount Iteration,3,58,0.029545,2.518255
[MO833] Paramount Iteration,6,58,0.029539,2.517991
[MO833] Paramount Iteration,4,58,0.029511,2.518056
[MO833] Paramount Iteration,10,58,0.029487,2.517920
[MO833] Paramount Iteration,12,58,0.029548,2.514259
[MO833] Paramount Iteration,14,58,0.029484,2.514214
[MO833] Paramount Iteration,8,58,0.029545,2.518016
[MO833] Paramount Iteration,7,58,0.029502,2.517998
[MO833] Paramount Iteration,5,58,0.029543,2.518047
[MO833] Paramount Iteration,11,58,0.029528,2.517926
[MO833] Paramount Iteration,13,58,0.029523,2.514264
[MO833] Paramount Iteration,15,58,0.029522,2.514214
[MO833] Paramount Iteration,9,58,0.029511,2.518018
[MO833] Paramount Iteration,0,59,0.029492,2.547431
[MO833] Paramount Iteration,2,59,0.029484,2.547776
[MO833] Paramount Iteration,4,59,0.029442,2.547559
[MO833] Paramount Iteration,8,59,0.029494,2.547530
[MO833] Paramount Iteration,1,59,0.029273,2.547430
[MO833] Paramount Iteration,3,59,0.029511,2.547776
[MO833] Paramount Iteration,6,59,0.029503,2.547513
[MO833] Paramount Iteration,5,59,0.029480,2.547549
[MO833] Paramount Iteration,10,59,0.029474,2.547456
[MO833] Paramount Iteration,12,59,0.029484,2.543758
[MO833] Paramount Iteration,14,59,0.029479,2.543753
[MO833] Paramount Iteration,9,59,0.029458,2.547531
[MO833] Paramount Iteration,7,59,0.029471,2.547524
[MO833] Paramount Iteration,11,59,0.029516,2.547462
[MO833] Paramount Iteration,13,59,0.029456,2.543761
[MO833] Paramount Iteration,15,59,0.029518,2.543753
[MO833] Paramount Iteration,0,60,0.029450,2.576902
[MO833] Paramount Iteration,1,60,0.029225,2.576900
[MO833] Paramount Iteration,2,60,0.029437,2.577252
[MO833] Paramount Iteration,6,60,0.029459,2.576993
[MO833] Paramount Iteration,4,60,0.029448,2.577064
[MO833] Paramount Iteration,10,60,0.029394,2.576907
[MO833] Paramount Iteration,12,60,0.029439,2.573216
[MO833] Paramount Iteration,14,60,0.029387,2.573196
[MO833] Paramount Iteration,8,60,0.029444,2.576993
[MO833] Paramount Iteration,3,60,0.029465,2.577253
[MO833] Paramount Iteration,7,60,0.029423,2.577000
[MO833] Paramount Iteration,5,60,0.029487,2.577057
[MO833] Paramount Iteration,11,60,0.029430,2.576910
[MO833] Paramount Iteration,13,60,0.029408,2.573217
[MO833] Paramount Iteration,15,60,0.029427,2.573197
[MO833] Paramount Iteration,9,60,0.029411,2.576995
[MO833] Paramount Iteration,2,61,0.029582,2.606875
[MO833] Paramount Iteration,6,61,0.029578,2.606587
[MO833] Paramount Iteration,10,61,0.029577,2.606539
[MO833] Paramount Iteration,12,61,0.029605,2.602834
[MO833] Paramount Iteration,14,61,0.029512,2.602787
[MO833] Paramount Iteration,8,61,0.029626,2.606640
[MO833] Paramount Iteration,3,61,0.029613,2.606878
[MO833] Paramount Iteration,7,61,0.029542,2.606594
[MO833] Paramount Iteration,4,61,0.029549,2.606668
[MO833] Paramount Iteration,11,61,0.029617,2.606545
[MO833] Paramount Iteration,13,61,0.029576,2.602835
[MO833] Paramount Iteration,15,61,0.029569,2.602787
[MO833] Paramount Iteration,9,61,0.029593,2.606643
[MO833] Paramount Iteration,5,61,0.029587,2.606661
[MO833] Paramount Iteration,0,61,0.029661,2.606584
[MO833] Paramount Iteration,1,61,0.029456,2.606583
[MO833] Paramount Iteration,0,62,0.029552,2.636181
[MO833] Paramount Iteration,2,62,0.029590,2.636507
[MO833] Paramount Iteration,6,62,0.029587,2.636190
[MO833] Paramount Iteration,4,62,0.029547,2.636270
[MO833] Paramount Iteration,10,62,0.029548,2.636150
[MO833] Paramount Iteration,12,62,0.029587,2.632438
[MO833] Paramount Iteration,14,62,0.029535,2.632384
[MO833] Paramount Iteration,8,62,0.029578,2.636240
[MO833] Paramount Iteration,1,62,0.029318,2.636180
[MO833] Paramount Iteration,3,62,0.029620,2.636508
[MO833] Paramount Iteration,7,62,0.029553,2.636197
[MO833] Paramount Iteration,5,62,0.029585,2.636263
[MO833] Paramount Iteration,11,62,0.029585,2.636153
[MO833] Paramount Iteration,13,62,0.029556,2.632439
[MO833] Paramount Iteration,15,62,0.029577,2.632386
[MO833] Paramount Iteration,9,62,0.029549,2.636246
[MO833] Paramount Iteration,0,63,0.029430,2.665653
[MO833] Paramount Iteration,2,63,0.029423,2.665967
[MO833] Paramount Iteration,6,63,0.029492,2.665698
[MO833] Paramount Iteration,4,63,0.029430,2.665762
[MO833] Paramount Iteration,10,63,0.029434,2.665638
[MO833] Paramount Iteration,12,63,0.029504,2.661959
[MO833] Paramount Iteration,14,63,0.029457,2.661902
[MO833] Paramount Iteration,8,63,0.029498,2.665757
[MO833] Paramount Iteration,1,63,0.029230,2.665649
[MO833] Paramount Iteration,3,63,0.029452,2.665968
[MO833] Paramount Iteration,7,63,0.029453,2.665705
[MO833] Paramount Iteration,5,63,0.029470,2.665755
[MO833] Paramount Iteration,11,63,0.029474,2.665645
[MO833] Paramount Iteration,13,63,0.029472,2.661960
[MO833] Paramount Iteration,15,63,0.029498,2.661903
[MO833] Paramount Iteration,9,63,0.029464,2.665758
[MO833] Paramount Iteration,2,64,0.065427,2.731435
[MO833] Paramount Iteration,6,64,0.065414,2.731131
[MO833] Paramount Iteration,4,64,0.065400,2.731221
[MO833] Paramount Iteration,10,64,0.065374,2.731075
[MO833] Paramount Iteration,12,64,0.065404,2.727383
[MO833] Paramount Iteration,14,64,0.065347,2.727309
[MO833] Paramount Iteration,3,64,0.065456,2.731436
[MO833] Paramount Iteration,7,64,0.065373,2.731138
[MO833] Paramount Iteration,5,64,0.065439,2.731214
[MO833] Paramount Iteration,11,64,0.065411,2.731077
[MO833] Paramount Iteration,13,64,0.065369,2.727381
[MO833] Paramount Iteration,15,64,0.065392,2.727312
[MO833] Paramount Iteration,8,64,0.065418,2.731194
[MO833] Paramount Iteration,9,64,0.065387,2.731200
[MO833] Paramount Iteration,0,64,0.065479,2.731169
[MO833] Paramount Iteration,1,64,0.065486,2.731378
[MO833] Paramount Iteration,0,65,0.029468,2.760674
[MO833] Paramount Iteration,2,65,0.029540,2.761015
[MO833] Paramount Iteration,4,65,0.029520,2.760801
[MO833] Paramount Iteration,12,65,0.029597,2.757001
[MO833] Paramount Iteration,8,65,0.029546,2.760761
[MO833] Paramount Iteration,1,65,0.029260,2.760674
[MO833] Paramount Iteration,3,65,0.029571,2.761017
[MO833] Paramount Iteration,6,65,0.029607,2.760756
[MO833] Paramount Iteration,5,65,0.029558,2.760793
[MO833] Paramount Iteration,10,65,0.029564,2.760693
[MO833] Paramount Iteration,13,65,0.029564,2.757003
[MO833] Paramount Iteration,14,65,0.029609,2.756978
[MO833] Paramount Iteration,9,65,0.029512,2.760762
[MO833] Paramount Iteration,7,65,0.029567,2.760763
[MO833] Paramount Iteration,11,65,0.029603,2.760699
[MO833] Paramount Iteration,15,65,0.029650,2.756979
[MO833] Paramount Iteration,0,66,0.029692,2.790390
[MO833] Paramount Iteration,2,66,0.029672,2.790727
[MO833] Paramount Iteration,6,66,0.029646,2.790416
[MO833] Paramount Iteration,4,66,0.029656,2.790513
[MO833] Paramount Iteration,10,66,0.029605,2.790360
[MO833] Paramount Iteration,12,66,0.029653,2.786670
[MO833] Paramount Iteration,14,66,0.029576,2.786621
[MO833] Paramount Iteration,8,66,0.029679,2.790456
[MO833] Paramount Iteration,1,66,0.029477,2.790389
[MO833] Paramount Iteration,3,66,0.029706,2.790732
[MO833] Paramount Iteration,7,66,0.029610,2.790423
[MO833] Paramount Iteration,5,66,0.029696,2.790506
[MO833] Paramount Iteration,11,66,0.029646,2.790366
[MO833] Paramount Iteration,13,66,0.029620,2.786668
[MO833] Paramount Iteration,15,66,0.029622,2.786621
[MO833] Paramount Iteration,9,66,0.029649,2.790457
[MO833] Paramount Iteration,2,67,0.029643,2.820409
[MO833] Paramount Iteration,6,67,0.029667,2.820098
[MO833] Paramount Iteration,4,67,0.029607,2.820179
[MO833] Paramount Iteration,10,67,0.029632,2.820053
[MO833] Paramount Iteration,12,67,0.029660,2.816342
[MO833] Paramount Iteration,14,67,0.029608,2.816288
[MO833] Paramount Iteration,8,67,0.029670,2.820147
[MO833] Paramount Iteration,3,67,0.029672,2.820410
[MO833] Paramount Iteration,7,67,0.029632,2.820106
[MO833] Paramount Iteration,5,67,0.029644,2.820172
[MO833] Paramount Iteration,11,67,0.029666,2.820054
[MO833] Paramount Iteration,13,67,0.029629,2.816343
[MO833] Paramount Iteration,15,67,0.029651,2.816290
[MO833] Paramount Iteration,9,67,0.029644,2.820155
[MO833] Paramount Iteration,0,67,0.029745,2.820158
[MO833] Paramount Iteration,1,67,0.029729,2.820371
[MO833] Paramount Iteration,2,68,0.029859,2.850304
[MO833] Paramount Iteration,6,68,0.029900,2.850016
[MO833] Paramount Iteration,4,68,0.029868,2.850104
[MO833] Paramount Iteration,10,68,0.029850,2.849959
[MO833] Paramount Iteration,12,68,0.029915,2.846271
[MO833] Paramount Iteration,14,68,0.029888,2.846239
[MO833] Paramount Iteration,3,68,0.029887,2.850305
[MO833] Paramount Iteration,7,68,0.029863,2.850024
[MO833] Paramount Iteration,5,68,0.029908,2.850097
[MO833] Paramount Iteration,11,68,0.029888,2.849965
[MO833] Paramount Iteration,13,68,0.029886,2.846272
[MO833] Paramount Iteration,15,68,0.029930,2.846239
[MO833] Paramount Iteration,8,68,0.029920,2.850086
[MO833] Paramount Iteration,9,68,0.029889,2.850091
[MO833] Paramount Iteration,0,68,0.029870,2.850045
[MO833] Paramount Iteration,1,68,0.029612,2.850018
[MO833] Paramount Iteration,2,69,0.029879,2.880223
[MO833] Paramount Iteration,6,69,0.029882,2.879918
[MO833] Paramount Iteration,4,69,0.029851,2.880011
[MO833] Paramount Iteration,10,69,0.029852,2.879869
[MO833] Paramount Iteration,12,69,0.029892,2.876177
[MO833] Paramount Iteration,14,69,0.029802,2.876103
[MO833] Paramount Iteration,8,69,0.029869,2.879978
[MO833] Paramount Iteration,3,69,0.029907,2.880224
[MO833] Paramount Iteration,7,69,0.029844,2.879925
[MO833] Paramount Iteration,5,69,0.029890,2.880004
[MO833] Paramount Iteration,11,69,0.029888,2.879871
[MO833] Paramount Iteration,13,69,0.029864,2.876179
[MO833] Paramount Iteration,15,69,0.029847,2.876107
[MO833] Paramount Iteration,9,69,0.029842,2.879984
[MO833] Paramount Iteration,0,69,0.029881,2.879950
[MO833] Paramount Iteration,1,69,0.029868,2.880152
[MO833] Paramount Iteration,0,70,0.029504,2.909489
[MO833] Paramount Iteration,2,70,0.029558,2.909816
[MO833] Paramount Iteration,1,70,0.029296,2.909484
[MO833] Paramount Iteration,3,70,0.029583,2.909815
[MO833] Paramount Iteration,6,70,0.029621,2.909553
[MO833] Paramount Iteration,4,70,0.029561,2.909632
[MO833] Paramount Iteration,10,70,0.029572,2.909496
[MO833] Paramount Iteration,12,70,0.029643,2.905839
[MO833] Paramount Iteration,14,70,0.029635,2.905796
[MO833] Paramount Iteration,8,70,0.029585,2.909585
[MO833] Paramount Iteration,7,70,0.029592,2.909569
[MO833] Paramount Iteration,5,70,0.029598,2.909624
[MO833] Paramount Iteration,11,70,0.029611,2.909502
[MO833] Paramount Iteration,13,70,0.029612,2.905843
[MO833] Paramount Iteration,15,70,0.029675,2.905796
[MO833] Paramount Iteration,9,70,0.029550,2.909586
[MO833] Paramount Iteration,0,71,0.029925,2.939429
[MO833] Paramount Iteration,2,71,0.029933,2.939788
[MO833] Paramount Iteration,6,71,0.029898,2.939471
[MO833] Paramount Iteration,4,71,0.029850,2.939537
[MO833] Paramount Iteration,12,71,0.029888,2.935742
[MO833] Paramount Iteration,14,71,0.029836,2.935702
[MO833] Paramount Iteration,8,71,0.029932,2.939538
[MO833] Paramount Iteration,1,71,0.029715,2.939426
[MO833] Paramount Iteration,3,71,0.029959,2.939787
[MO833] Paramount Iteration,7,71,0.029866,2.939485
[MO833] Paramount Iteration,5,71,0.029888,2.939530
[MO833] Paramount Iteration,10,71,0.029919,2.939472
[MO833] Paramount Iteration,13,71,0.029857,2.935744
[MO833] Paramount Iteration,15,71,0.029882,2.935702
[MO833] Paramount Iteration,9,71,0.029899,2.939539
[MO833] Paramount Iteration,11,71,0.029958,2.939478
[MO833] Paramount Iteration,0,72,0.029978,2.969426
[MO833] Paramount Iteration,2,72,0.029950,2.969773
[MO833] Paramount Iteration,1,72,0.029733,2.969423
[MO833] Paramount Iteration,3,72,0.029975,2.969771
[MO833] Paramount Iteration,6,72,0.030020,2.969512
[MO833] Paramount Iteration,4,72,0.029979,2.969574
[MO833] Paramount Iteration,10,72,0.029929,2.969458
[MO833] Paramount Iteration,12,72,0.030014,2.965787
[MO833] Paramount Iteration,14,72,0.029984,2.965749
[MO833] Paramount Iteration,8,72,0.029972,2.969532
[MO833] Paramount Iteration,7,72,0.029987,2.969524
[MO833] Paramount Iteration,5,72,0.030013,2.969562
[MO833] Paramount Iteration,11,72,0.029969,2.969465
[MO833] Paramount Iteration,13,72,0.029983,2.965788
[MO833] Paramount Iteration,15,72,0.030026,2.965749
[MO833] Paramount Iteration,9,72,0.029938,2.969533
[MO833] Paramount Iteration,0,73,0.065808,3.035254
[MO833] Paramount Iteration,2,73,0.065747,3.035558
[MO833] Paramount Iteration,6,73,0.065730,3.035263
[MO833] Paramount Iteration,4,73,0.065720,3.035347
[MO833] Paramount Iteration,10,73,0.065687,3.035202
[MO833] Paramount Iteration,12,73,0.065722,3.031522
[MO833] Paramount Iteration,14,73,0.065654,3.031464
[MO833] Paramount Iteration,8,73,0.065784,3.035333
[MO833] Paramount Iteration,1,73,0.065588,3.035253
[MO833] Paramount Iteration,3,73,0.065775,3.035559
[MO833] Paramount Iteration,7,73,0.065691,3.035270
[MO833] Paramount Iteration,5,73,0.065757,3.035340
[MO833] Paramount Iteration,11,73,0.065725,3.035206
[MO833] Paramount Iteration,13,73,0.065692,3.031523
[MO833] Paramount Iteration,15,73,0.065694,3.031464
[MO833] Paramount Iteration,9,73,0.065751,3.035334
[MO833] Paramount Iteration,0,74,0.029605,3.064899
[MO833] Paramount Iteration,2,74,0.029648,3.065244
[MO833] Paramount Iteration,6,74,0.029662,3.064941
[MO833] Paramount Iteration,4,74,0.029606,3.065016
[MO833] Paramount Iteration,10,74,0.029635,3.064892
[MO833] Paramount Iteration,12,74,0.029650,3.061190
[MO833] Paramount Iteration,14,74,0.029603,3.061132
[MO833] Paramount Iteration,8,74,0.029619,3.064975
[MO833] Paramount Iteration,1,74,0.029351,3.064898
[MO833] Paramount Iteration,3,74,0.029677,3.065246
[MO833] Paramount Iteration,7,74,0.029622,3.064949
[MO833] Paramount Iteration,5,74,0.029646,3.065009
[MO833] Paramount Iteration,11,74,0.029671,3.064895
[MO833] Paramount Iteration,13,74,0.029619,3.061191
[MO833] Paramount Iteration,15,74,0.029645,3.061132
[MO833] Paramount Iteration,9,74,0.029586,3.064978
[MO833] Paramount Iteration,0,75,0.029596,3.094515
[MO833] Paramount Iteration,2,75,0.029547,3.094830
[MO833] Paramount Iteration,6,75,0.029559,3.094520
[MO833] Paramount Iteration,4,75,0.029539,3.094614
[MO833] Paramount Iteration,10,75,0.029560,3.094510
[MO833] Paramount Iteration,12,75,0.029601,3.090808
[MO833] Paramount Iteration,14,75,0.029558,3.090743
[MO833] Paramount Iteration,8,75,0.029628,3.094621
[MO833] Paramount Iteration,1,75,0.029390,3.094510
[MO833] Paramount Iteration,3,75,0.029576,3.094831
[MO833] Paramount Iteration,7,75,0.029522,3.094529
[MO833] Paramount Iteration,5,75,0.029580,3.094607
[MO833] Paramount Iteration,11,75,0.029600,3.094516
[MO833] Paramount Iteration,13,75,0.029571,3.090810
[MO833] Paramount Iteration,15,75,0.029595,3.090743
[MO833] Paramount Iteration,9,75,0.029597,3.094622
[MO833] Paramount Iteration,0,76,0.029555,3.124083
[MO833] Paramount Iteration,2,76,0.029536,3.124407
[MO833] Paramount Iteration,6,76,0.029550,3.124087
[MO833] Paramount Iteration,4,76,0.029500,3.124177
[MO833] Paramount Iteration,10,76,0.029483,3.124055
[MO833] Paramount Iteration,12,76,0.029513,3.120337
[MO833] Paramount Iteration,14,76,0.029483,3.120286
[MO833] Paramount Iteration,8,76,0.029504,3.124142
[MO833] Paramount Iteration,1,76,0.029322,3.124080
[MO833] Paramount Iteration,3,76,0.029565,3.124408
[MO833] Paramount Iteration,7,76,0.029510,3.124094
[MO833] Paramount Iteration,5,76,0.029542,3.124170
[MO833] Paramount Iteration,11,76,0.029521,3.124058
[MO833] Paramount Iteration,13,76,0.029483,3.120338
[MO833] Paramount Iteration,15,76,0.029525,3.120286
[MO833] Paramount Iteration,9,76,0.029475,3.124146
[MO833] Paramount Iteration,0,77,0.029609,3.153725
[MO833] Paramount Iteration,2,77,0.029574,3.154021
[MO833] Paramount Iteration,6,77,0.029643,3.153746
[MO833] Paramount Iteration,4,77,0.029582,3.153817
[MO833] Paramount Iteration,10,77,0.029579,3.153692
[MO833] Paramount Iteration,12,77,0.029638,3.149995
[MO833] Paramount Iteration,14,77,0.029605,3.149949
[MO833] Paramount Iteration,8,77,0.029635,3.153799
[MO833] Paramount Iteration,1,77,0.029377,3.153724
[MO833] Paramount Iteration,3,77,0.029603,3.154023
[MO833] Paramount Iteration,7,77,0.029602,3.153753
[MO833] Paramount Iteration,5,77,0.029623,3.153811
[MO833] Paramount Iteration,11,77,0.029618,3.153698
[MO833] Paramount Iteration,13,77,0.029605,3.149996
[MO833] Paramount Iteration,15,77,0.029646,3.149949
[MO833] Paramount Iteration,9,77,0.029606,3.153804
[MO833] Paramount Iteration,0,78,0.029766,3.183511
[MO833] Paramount Iteration,2,78,0.029782,3.183845
[MO833] Paramount Iteration,6,78,0.029800,3.183560
[MO833] Paramount Iteration,4,78,0.029784,3.183657
[MO833] Paramount Iteration,10,78,0.029775,3.183530
[MO833] Paramount Iteration,12,78,0.029845,3.179856
[MO833] Paramount Iteration,14,78,0.029773,3.179784
[MO833] Paramount Iteration,8,78,0.029797,3.183614
[MO833] Paramount Iteration,1,78,0.029543,3.183508
[MO833] Paramount Iteration,3,78,0.029808,3.183843
[MO833] Paramount Iteration,7,78,0.029745,3.183567
[MO833] Paramount Iteration,5,78,0.029818,3.183648
[MO833] Paramount Iteration,11,78,0.029817,3.183537
[MO833] Paramount Iteration,13,78,0.029813,3.179857
[MO833] Paramount Iteration,15,78,0.029813,3.179784
[MO833] Paramount Iteration,9,78,0.029764,3.183615
[MO833] Paramount Iteration,0,79,0.030197,3.213726
[MO833] Paramount Iteration,2,79,0.030166,3.214050
[MO833] Paramount Iteration,6,79,0.030174,3.213752
[MO833] Paramount Iteration,4,79,0.030109,3.213818
[MO833] Paramount Iteration,10,79,0.030104,3.213696
[MO833] Paramount Iteration,12,79,0.030108,3.209982
[MO833] Paramount Iteration,14,79,0.030092,3.209932
[MO833] Paramount Iteration,8,79,0.030160,3.213792
[MO833] Paramount Iteration,1,79,0.029963,3.213725
[MO833] Paramount Iteration,3,79,0.030196,3.214052
[MO833] Paramount Iteration,7,79,0.030137,3.213759
[MO833] Paramount Iteration,5,79,0.030147,3.213812
[MO833] Paramount Iteration,11,79,0.030143,3.213700
[MO833] Paramount Iteration,13,79,0.030074,3.209983
[MO833] Paramount Iteration,15,79,0.030134,3.209935
[MO833] Paramount Iteration,9,79,0.030128,3.213796
[MO833] Paramount Iteration,2,80,0.030026,3.244117
[MO833] Paramount Iteration,6,80,0.030026,3.243815
[MO833] Paramount Iteration,4,80,0.030042,3.243915
[MO833] Paramount Iteration,10,80,0.030014,3.243770
[MO833] Paramount Iteration,12,80,0.030070,3.240075
[MO833] Paramount Iteration,14,80,0.030010,3.240005
[MO833] Paramount Iteration,8,80,0.030074,3.243883
[MO833] Paramount Iteration,3,80,0.030055,3.244118
[MO833] Paramount Iteration,7,80,0.029987,3.243823
[MO833] Paramount Iteration,5,80,0.030077,3.243908
[MO833] Paramount Iteration,11,80,0.030050,3.243773
[MO833] Paramount Iteration,13,80,0.030031,3.240074
[MO833] Paramount Iteration,15,80,0.030053,3.240005
[MO833] Paramount Iteration,9,80,0.030048,3.243890
[MO833] Paramount Iteration,0,80,0.030027,3.243824
[MO833] Paramount Iteration,1,80,0.029830,3.243823
[MO833] Paramount Iteration,0,81,0.030152,3.274037
[MO833] Paramount Iteration,2,81,0.030175,3.274332
[MO833] Paramount Iteration,6,81,0.030239,3.274073
[MO833] Paramount Iteration,4,81,0.030213,3.274179
[MO833] Paramount Iteration,10,81,0.030186,3.274012
[MO833] Paramount Iteration,14,81,0.030246,3.270303
[MO833] Paramount Iteration,8,81,0.030242,3.274144
[MO833] Paramount Iteration,1,81,0.029952,3.274034
[MO833] Paramount Iteration,3,81,0.030204,3.274333
[MO833] Paramount Iteration,7,81,0.030200,3.274084
[MO833] Paramount Iteration,5,81,0.030249,3.274173
[MO833] Paramount Iteration,11,81,0.030227,3.274019
[MO833] Paramount Iteration,12,81,0.030288,3.270383
[MO833] Paramount Iteration,15,81,0.030278,3.270303
[MO833] Paramount Iteration,9,81,0.030208,3.274145
[MO833] Paramount Iteration,13,81,0.030255,3.270385
[MO833] Paramount Iteration,0,82,0.030068,3.304125
[MO833] Paramount Iteration,2,82,0.030085,3.304455
[MO833] Paramount Iteration,6,82,0.030049,3.304142
[MO833] Paramount Iteration,4,82,0.029987,3.304219
[MO833] Paramount Iteration,10,82,0.030027,3.304100
[MO833] Paramount Iteration,12,82,0.029983,3.300388
[MO833] Paramount Iteration,14,82,0.030003,3.300369
[MO833] Paramount Iteration,8,82,0.030021,3.304186
[MO833] Paramount Iteration,1,82,0.029835,3.304123
[MO833] Paramount Iteration,3,82,0.030115,3.304458
[MO833] Paramount Iteration,7,82,0.030012,3.304152
[MO833] Paramount Iteration,5,82,0.030022,3.304212
[MO833] Paramount Iteration,11,82,0.030065,3.304104
[MO833] Paramount Iteration,13,82,0.029954,3.300392
[MO833] Paramount Iteration,15,82,0.030046,3.300369
[MO833] Paramount Iteration,9,82,0.029997,3.304196
[MO833] Paramount Iteration,0,83,0.066389,3.370545
[MO833] Paramount Iteration,2,83,0.066354,3.370847
[MO833] Paramount Iteration,6,83,0.066386,3.370544
[MO833] Paramount Iteration,4,83,0.066366,3.370637
[MO833] Paramount Iteration,10,83,0.066336,3.370494
[MO833] Paramount Iteration,12,83,0.066393,3.366801
[MO833] Paramount Iteration,14,83,0.066312,3.366743
[MO833] Paramount Iteration,8,83,0.066398,3.370608
[MO833] Paramount Iteration,1,83,0.066183,3.370544
[MO833] Paramount Iteration,3,83,0.066387,3.370851
[MO833] Paramount Iteration,7,83,0.066349,3.370551
[MO833] Paramount Iteration,5,83,0.066403,3.370632
[MO833] Paramount Iteration,11,83,0.066371,3.370497
[MO833] Paramount Iteration,13,83,0.066361,3.366802
[MO833] Paramount Iteration,15,83,0.066354,3.366743
[MO833] Paramount Iteration,9,83,0.066367,3.370612
[MO833] Paramount Iteration,2,84,0.030272,3.401170
[MO833] Paramount Iteration,6,84,0.030300,3.400865
[MO833] Paramount Iteration,4,84,0.030284,3.400977
[MO833] Paramount Iteration,10,84,0.030268,3.400820
[MO833] Paramount Iteration,12,84,0.030313,3.397134
[MO833] Paramount Iteration,14,84,0.030250,3.397056
[MO833] Paramount Iteration,3,84,0.030308,3.401173
[MO833] Paramount Iteration,7,84,0.030259,3.400872
[MO833] Paramount Iteration,5,84,0.030322,3.400970
[MO833] Paramount Iteration,11,84,0.030305,3.400825
[MO833] Paramount Iteration,13,84,0.030268,3.397133
[MO833] Paramount Iteration,15,84,0.030292,3.397059
[MO833] Paramount Iteration,8,84,0.030316,3.400945
[MO833] Paramount Iteration,9,84,0.030286,3.400950
[MO833] Paramount Iteration,0,84,0.030325,3.400917
[MO833] Paramount Iteration,1,84,0.030326,3.401111
[MO833] Paramount Iteration,0,85,0.029843,3.430793
[MO833] Paramount Iteration,2,85,0.029847,3.431083
[MO833] Paramount Iteration,6,85,0.029943,3.430825
[MO833] Paramount Iteration,4,85,0.029897,3.430930
[MO833] Paramount Iteration,10,85,0.029888,3.430766
[MO833] Paramount Iteration,14,85,0.029934,3.427051
[MO833] Paramount Iteration,8,85,0.029928,3.430893
[MO833] Paramount Iteration,1,85,0.029643,3.430790
[MO833] Paramount Iteration,3,85,0.029894,3.431084
[MO833] Paramount Iteration,7,85,0.029903,3.430833
[MO833] Paramount Iteration,5,85,0.029934,3.430922
[MO833] Paramount Iteration,11,85,0.029926,3.430772
[MO833] Paramount Iteration,12,85,0.029982,3.427130
[MO833] Paramount Iteration,15,85,0.029977,3.427051
[MO833] Paramount Iteration,9,85,0.029894,3.430894
[MO833] Paramount Iteration,13,85,0.029938,3.427131
[MO833] Paramount Iteration,0,86,0.029940,3.460753
[MO833] Paramount Iteration,2,86,0.029924,3.461053
[MO833] Paramount Iteration,6,86,0.029927,3.460772
[MO833] Paramount Iteration,4,86,0.029897,3.460882
[MO833] Paramount Iteration,10,86,0.029903,3.460726
[MO833] Paramount Iteration,14,86,0.029889,3.457003
[MO833] Paramount Iteration,8,86,0.029931,3.460842
[MO833] Paramount Iteration,1,86,0.029706,3.460752
[MO833] Paramount Iteration,3,86,0.029957,3.461054
[MO833] Paramount Iteration,7,86,0.029889,3.460782
[MO833] Paramount Iteration,5,86,0.029930,3.460871
[MO833] Paramount Iteration,11,86,0.029943,3.460732
[MO833] Paramount Iteration,12,86,0.029935,3.457085
[MO833] Paramount Iteration,15,86,0.029930,3.457003
[MO833] Paramount Iteration,9,86,0.029948,3.460894
[MO833] Paramount Iteration,13,86,0.029902,3.457086
[MO833] Paramount Iteration,0,87,0.029778,3.490559
[MO833] Paramount Iteration,2,87,0.029783,3.490881
[MO833] Paramount Iteration,1,87,0.029540,3.490556
[MO833] Paramount Iteration,3,87,0.029815,3.490882
[MO833] Paramount Iteration,6,87,0.029834,3.490623
[MO833] Paramount Iteration,4,87,0.029776,3.490705
[MO833] Paramount Iteration,10,87,0.029774,3.490558
[MO833] Paramount Iteration,12,87,0.029804,3.486906
[MO833] Paramount Iteration,14,87,0.029783,3.486843
[MO833] Paramount Iteration,8,87,0.029801,3.490665
[MO833] Paramount Iteration,7,87,0.029794,3.490630
[MO833] Paramount Iteration,5,87,0.029809,3.490696
[MO833] Paramount Iteration,11,87,0.029812,3.490564
[MO833] Paramount Iteration,13,87,0.029772,3.486907
[MO833] Paramount Iteration,15,87,0.029822,3.486843
[MO833] Paramount Iteration,9,87,0.029753,3.490666
[MO833] Paramount Iteration,0,88,0.029715,3.520364
[MO833] Paramount Iteration,2,88,0.029764,3.520695
[MO833] Paramount Iteration,1,88,0.029785,3.520361
[MO833] Paramount Iteration,3,88,0.029797,3.520696
[MO833] Paramount Iteration,6,88,0.029796,3.520435
[MO833] Paramount Iteration,4,88,0.029743,3.520498
[MO833] Paramount Iteration,10,88,0.029761,3.520379
[MO833] Paramount Iteration,12,88,0.029752,3.516678
[MO833] Paramount Iteration,14,88,0.029746,3.516661
[MO833] Paramount Iteration,8,88,0.029785,3.520472
[MO833] Paramount Iteration,7,88,0.029759,3.520444
[MO833] Paramount Iteration,5,88,0.029779,3.520491
[MO833] Paramount Iteration,11,88,0.029803,3.520385
[MO833] Paramount Iteration,13,88,0.029719,3.516679
[MO833] Paramount Iteration,15,88,0.029799,3.516661
[MO833] Paramount Iteration,9,88,0.029752,3.520472
[MO833] Paramount Iteration,2,89,0.029733,3.550473
[MO833] Paramount Iteration,6,89,0.029699,3.550151
[MO833] Paramount Iteration,4,89,0.029698,3.550255
[MO833] Paramount Iteration,10,89,0.029673,3.550115
[MO833] Paramount Iteration,12,89,0.029718,3.546415
[MO833] Paramount Iteration,14,89,0.029630,3.546343
[MO833] Paramount Iteration,0,89,0.029791,3.550175
[MO833] Paramount Iteration,3,89,0.029767,3.550477
[MO833] Paramount Iteration,7,89,0.029659,3.550158
[MO833] Paramount Iteration,5,89,0.029737,3.550248
[MO833] Paramount Iteration,11,89,0.029715,3.550121
[MO833] Paramount Iteration,13,89,0.029683,3.546416
[MO833] Paramount Iteration,15,89,0.029665,3.546346
[MO833] Paramount Iteration,8,89,0.029733,3.550227
[MO833] Paramount Iteration,9,89,0.029684,3.550230
[MO833] Paramount Iteration,1,89,0.029784,3.550379
[MO833] Paramount Iteration,0,90,0.029652,3.579913
[MO833] Paramount Iteration,2,90,0.029730,3.580244
[MO833] Paramount Iteration,1,90,0.029485,3.579904
[MO833] Paramount Iteration,3,90,0.029760,3.580244
[MO833] Paramount Iteration,6,90,0.029813,3.579981
[MO833] Paramount Iteration,4,90,0.029734,3.580045
[MO833] Paramount Iteration,10,90,0.029749,3.579930
[MO833] Paramount Iteration,12,90,0.029804,3.576236
[MO833] Paramount Iteration,8,90,0.029781,3.580027
[MO833] Paramount Iteration,7,90,0.029780,3.579996
[MO833] Paramount Iteration,5,90,0.029773,3.580038
[MO833] Paramount Iteration,11,90,0.029791,3.579937
[MO833] Paramount Iteration,13,90,0.029771,3.576237
[MO833] Paramount Iteration,14,90,0.029812,3.576215
[MO833] Paramount Iteration,9,90,0.029750,3.580028
[MO833] Paramount Iteration,15,90,0.029853,3.576215
[MO833] Paramount Iteration,2,91,0.065811,3.646093
[MO833] Paramount Iteration,6,91,0.065785,3.645788
[MO833] Paramount Iteration,4,91,0.065767,3.645871
[MO833] Paramount Iteration,10,91,0.065756,3.645745
[MO833] Paramount Iteration,12,91,0.065778,3.642032
[MO833] Paramount Iteration,14,91,0.065694,3.641972
[MO833] Paramount Iteration,8,91,0.065789,3.645838
[MO833] Paramount Iteration,0,91,0.065839,3.645766
[MO833] Paramount Iteration,3,91,0.065841,3.646095
[MO833] Paramount Iteration,7,91,0.065746,3.645795
[MO833] Paramount Iteration,5,91,0.065806,3.645864
[MO833] Paramount Iteration,11,91,0.065796,3.645751
[MO833] Paramount Iteration,13,91,0.065744,3.642033
[MO833] Paramount Iteration,15,91,0.065736,3.641972
[MO833] Paramount Iteration,9,91,0.065756,3.645841
[MO833] Paramount Iteration,1,91,0.065614,3.645765
[MO833] Paramount Iteration,0,92,0.029439,3.675297
[MO833] Paramount Iteration,2,92,0.029522,3.675627
[MO833] Paramount Iteration,4,92,0.029496,3.675427
[MO833] Paramount Iteration,10,92,0.029499,3.675305
[MO833] Paramount Iteration,12,92,0.029556,3.671609
[MO833] Paramount Iteration,8,92,0.029536,3.675393
[MO833] Paramount Iteration,1,92,0.029508,3.675295
[MO833] Paramount Iteration,3,92,0.029498,3.675628
[MO833] Paramount Iteration,5,92,0.029533,3.675418
[MO833] Paramount Iteration,11,92,0.029539,3.675311
[MO833] Paramount Iteration,13,92,0.029522,3.671610
[MO833] Paramount Iteration,9,92,0.029504,3.675394
[MO833] Paramount Iteration,6,92,0.029661,3.675471
[MO833] Paramount Iteration,14,92,0.029606,3.671638
[MO833] Paramount Iteration,7,92,0.029623,3.675482
[MO833] Paramount Iteration,15,92,0.029647,3.671638
[MO833] Paramount Iteration,0,93,0.029538,3.704855
[MO833] Paramount Iteration,2,93,0.029544,3.705183
[MO833] Paramount Iteration,1,93,0.029278,3.704851
[MO833] Paramount Iteration,3,93,0.029520,3.705184
[MO833] Paramount Iteration,6,93,0.029461,3.704953
[MO833] Paramount Iteration,4,93,0.029519,3.704999
[MO833] Paramount Iteration,10,93,0.029521,3.704885
[MO833] Paramount Iteration,12,93,0.029598,3.701226
[MO833] Paramount Iteration,8,93,0.029544,3.704959
[MO833] Paramount Iteration,7,93,0.029425,3.704964
[MO833] Paramount Iteration,5,93,0.029554,3.704989
[MO833] Paramount Iteration,11,93,0.029560,3.704891
[MO833] Paramount Iteration,13,93,0.029566,3.701227
[MO833] Paramount Iteration,14,93,0.029467,3.701184
[MO833] Paramount Iteration,9,93,0.029511,3.704960
[MO833] Paramount Iteration,15,93,0.029511,3.701184
[MO833] Paramount Iteration,2,94,0.029561,3.734755
[MO833] Paramount Iteration,6,94,0.029478,3.734448
[MO833] Paramount Iteration,4,94,0.029474,3.734527
[MO833] Paramount Iteration,10,94,0.029461,3.734404
[MO833] Paramount Iteration,12,94,0.029449,3.730692
[MO833] Paramount Iteration,14,94,0.029388,3.730633
[MO833] Paramount Iteration,8,94,0.029524,3.734504
[MO833] Paramount Iteration,0,94,0.029593,3.734465
[MO833] Paramount Iteration,3,94,0.029538,3.734756
[MO833] Paramount Iteration,7,94,0.029439,3.734455
[MO833] Paramount Iteration,5,94,0.029512,3.734521
[MO833] Paramount Iteration,11,94,0.029496,3.734408
[MO833] Paramount Iteration,13,94,0.029418,3.730693
[MO833] Paramount Iteration,15,94,0.029435,3.730639
[MO833] Paramount Iteration,9,94,0.029490,3.734505
[MO833] Paramount Iteration,1,94,0.029344,3.734446
[MO833] Paramount Iteration,4,95,0.029581,3.764164
[MO833] Paramount Iteration,12,95,0.029616,3.760322
[MO833] Paramount Iteration,8,95,0.029585,3.764111
[MO833] Paramount Iteration,0,95,0.029507,3.764038
[MO833] Paramount Iteration,2,95,0.029631,3.764398
[MO833] Paramount Iteration,6,95,0.029655,3.764123
[MO833] Paramount Iteration,5,95,0.029619,3.764158
[MO833] Paramount Iteration,10,95,0.029581,3.764044
[MO833] Paramount Iteration,13,95,0.029584,3.760320
[MO833] Paramount Iteration,14,95,0.029601,3.760299
[MO833] Paramount Iteration,9,95,0.029554,3.764113
[MO833] Paramount Iteration,1,95,0.029370,3.764037
[MO833] Paramount Iteration,3,95,0.029608,3.764400
[MO833] Paramount Iteration,7,95,0.029613,3.764130
[MO833] Paramount Iteration,11,95,0.029619,3.764049
[MO833] Paramount Iteration,15,95,0.029650,3.760306
[MO833] Paramount Iteration,2,96,0.029551,3.793960
[MO833] Paramount Iteration,6,96,0.029547,3.793684
[MO833] Paramount Iteration,10,96,0.029528,3.793628
[MO833] Paramount Iteration,14,96,0.029559,3.789918
[MO833] Paramount Iteration,8,96,0.029615,3.793748
[MO833] Paramount Iteration,3,96,0.029528,3.793961
[MO833] Paramount Iteration,7,96,0.029510,3.793694
[MO833] Paramount Iteration,4,96,0.029563,3.793785
[MO833] Paramount Iteration,11,96,0.029564,3.793634
[MO833] Paramount Iteration,12,96,0.029651,3.789986
[MO833] Paramount Iteration,15,96,0.029600,3.789918
[MO833] Paramount Iteration,9,96,0.029575,3.793751
[MO833] Paramount Iteration,5,96,0.029601,3.793777
[MO833] Paramount Iteration,13,96,0.029621,3.789987
[MO833] Paramount Iteration,0,96,0.029524,3.793673
[MO833] Paramount Iteration,1,96,0.029613,3.793672
[MO833] Paramount Iteration,2,97,0.029551,3.823523
[MO833] Paramount Iteration,6,97,0.029535,3.823240
[MO833] Paramount Iteration,4,97,0.029503,3.823338
[MO833] Paramount Iteration,10,97,0.029520,3.823202
[MO833] Paramount Iteration,8,97,0.029527,3.823293
[MO833] Paramount Iteration,0,97,0.029501,3.823202
[MO833] Paramount Iteration,3,97,0.029528,3.823524
[MO833] Paramount Iteration,7,97,0.029487,3.823255
[MO833] Paramount Iteration,5,97,0.029539,3.823331
[MO833] Paramount Iteration,11,97,0.029558,3.823209
[MO833] Paramount Iteration,12,97,0.029541,3.819543
[MO833] Paramount Iteration,14,97,0.029499,3.819474
[MO833] Paramount Iteration,9,97,0.029496,3.823294
[MO833] Paramount Iteration,1,97,0.029257,3.823201
[MO833] Paramount Iteration,13,97,0.029512,3.819544
[MO833] Paramount Iteration,15,97,0.029537,3.819473
[MO833] Paramount Iteration,0,98,0.029297,3.852594
[MO833] Paramount Iteration,1,98,0.029371,3.852593
[MO833] Paramount Iteration,2,98,0.029406,3.852938
[MO833] Paramount Iteration,6,98,0.029423,3.852684
[MO833] Paramount Iteration,4,98,0.029338,3.852732
[MO833] Paramount Iteration,10,98,0.029350,3.852610
[MO833] Paramount Iteration,12,98,0.029352,3.848913
[MO833] Paramount Iteration,14,98,0.029353,3.848890
[MO833] Paramount Iteration,8,98,0.029375,3.852686
[MO833] Paramount Iteration,3,98,0.029384,3.852940
[MO833] Paramount Iteration,7,98,0.029384,3.852691
[MO833] Paramount Iteration,5,98,0.029374,3.852725
[MO833] Paramount Iteration,11,98,0.029390,3.852617
[MO833] Paramount Iteration,13,98,0.029322,3.848914
[MO833] Paramount Iteration,15,98,0.029395,3.848891
[MO833] Paramount Iteration,9,98,0.029342,3.852687
[MO833] Paramount Iteration,0,99,0.029429,3.882093
[MO833] Paramount Iteration,2,99,0.029475,3.882422
[MO833] Paramount Iteration,6,99,0.029416,3.882118
[MO833] Paramount Iteration,4,99,0.029406,3.882192
[MO833] Paramount Iteration,10,99,0.029408,3.882079
[MO833] Paramount Iteration,12,99,0.029422,3.878356
[MO833] Paramount Iteration,14,99,0.029381,3.878322
[MO833] Paramount Iteration,8,99,0.029455,3.882158
[MO833] Paramount Iteration,1,99,0.029480,3.882092
[MO833] Paramount Iteration,3,99,0.029452,3.882423
[MO833] Paramount Iteration,7,99,0.029376,3.882125
[MO833] Paramount Iteration,5,99,0.029441,3.882185
[MO833] Paramount Iteration,11,99,0.029445,3.882082
[MO833] Paramount Iteration,13,99,0.029387,3.878357
[MO833] Paramount Iteration,15,99,0.029412,3.878322
[MO833] Paramount Iteration,9,99,0.029425,3.882163
[MO833] Paramount Iteration,2,100,0.076232,3.958662
[MO833] Paramount Iteration,6,100,0.076225,3.958361
[MO833] Paramount Iteration,10,100,0.076163,3.958305
[MO833] Paramount Iteration,12,100,0.076248,3.954623
[MO833] Paramount Iteration,14,100,0.076168,3.954551
---------------- Step      100 ----- CPU =      3.3661 (sec) ----------------
TotEng   =    -25290.7303 KinEng   =     21591.9084 Temp     =       301.0906 
PotEng   =    -46882.6387 E_bond   =      2567.9807 E_angle  =     10781.9571 
E_dihed  =      5198.7492 E_impro  =       216.7864 E_vdwl   =     -1902.6618 
E_coul   =    206659.5226 E_long   =   -270404.9730 Press    =         6.7406 
Volume   =    308134.2285 
[MO833] Paramount Iteration,3,100,0.076210,3.958663
[MO833] Paramount Iteration,7,100,0.076184,3.958368
[MO833] Paramount Iteration,4,100,0.076220,3.958465
[MO833] Paramount Iteration,11,100,0.076204,3.958311
[MO833] Paramount Iteration,13,100,0.076214,3.954625
[MO833] Paramount Iteration,15,100,0.076211,3.954553
[MO833] Paramount Iteration,8,100,0.076252,3.958430
[MO833] Paramount Iteration,0,100,0.076368,3.958480
[MO833] Paramount Iteration,5,100,0.076256,3.958458
[MO833] Paramount Iteration,9,100,0.076229,3.958442
[MO833] Paramount Iteration,1,100,0.076259,3.958572
Loop time of 3.36714 on 16 procs for 100 steps with 32000 atoms

Performance: 5.132 ns/day, 4.677 hours/ns, 29.699 timesteps/s
89.9% CPU use with 16 MPI tasks x 1 OpenMP threads

MPI task timing breakdown:
Section |  min time  |  avg time  |  max time  |%varavg| %total
---------------------------------------------------------------
Pair    | 1.8762     | 2.003      | 2.0717     |   4.1 | 59.49
Bond    | 0.072084   | 0.082744   | 0.095857   |   2.2 |  2.46
Kspace  | 0.44698    | 0.51524    | 0.6327     |   7.7 | 15.30
Neigh   | 0.36971    | 0.3704     | 0.37125    |   0.1 | 11.00
Comm    | 0.12763    | 0.13635    | 0.14327    |   1.3 |  4.05
Output  | 0.0022199  | 0.0023174  | 0.0025191  |   0.1 |  0.07
Modify  | 0.22753    | 0.23962    | 0.24701    |   0.9 |  7.12
Other   |            | 0.01748    |            |       |  0.52

Nlocal:    2000 ave 2075 max 1940 min
Histogram: 2 1 1 2 5 2 0 2 0 1
Nghost:    11843.2 ave 11929 max 11761 min
Histogram: 3 0 2 1 3 0 2 3 1 1
Neighs:    751756 ave 797548 max 712805 min
Histogram: 2 0 1 4 3 2 2 1 0 1

Total # of neighbors = 12028093
Ave neighs/atom = 375.878
Ave special neighs/atom = 7.43187
Neighbor list builds = 11
Dangerous builds = 0
Total wall time: 0:00:03
[MO833] Beta,3,0.183574
[MO833] PI avg,3,0.033668,100
[MO833] Beta,2,0.183597
[MO833] PI avg,2,0.033668,100
[MO833] Beta,5,0.183542
[MO833] PI avg,5,0.033668,100
[MO833] Beta,0,0.183470
[MO833] PI avg,0,0.033670,100
[MO833] Beta,10,0.183504
[MO833] Beta,8,0.183532
[MO833] Total time,3.984689
[MO833] PI avg,10,0.033668,100
[MO833] PI avg,8,0.033668,100
[MO833] Beta,7,0.183545
[MO833] Beta,11,0.183533
[MO833] PI avg,11,0.033668,100
[MO833] Beta,13,0.182429
[MO833] Beta,14,0.182430
[MO833] PI avg,7,0.033668,100
[MO833] PI avg,13,0.033668,100
[MO833] PI avg,14,0.033668,100
[MO833] Beta,4,0.183587
[MO833] Beta,9,0.183569
[MO833] PI avg,4,0.033669,100
[MO833] PI avg,9,0.033669,100
[MO833] Beta,6,0.183619
[MO833] PI avg,6,0.033668,100
[MO833] Beta,15,0.182506
[MO833] PI avg,15,0.033667,100
[MO833] Beta,12,0.182509
[MO833] PI avg,12,0.033668,100
[MO833] Beta,1,0.183551
[MO833] PI avg,1,0.033671,100
