LAMMPS (3 Mar 2020)
OMP_NUM_THREADS environment is not set. Defaulting to 1 thread. (src/comm.cpp:94)
  using 1 OpenMP thread(s) per MPI task
Reading data file ...
  orthogonal box = (-27.5 -38.5 -36.3646) to (27.5 38.5 36.3615)
  2 by 2 by 2 MPI processor grid
  reading atoms ...
  32000 atoms
  reading velocities ...
  32000 velocities
  scanning bonds ...
  4 = max bonds/atom
  scanning angles ...
  8 = max angles/atom
  scanning dihedrals ...
  18 = max dihedrals/atom
  scanning impropers ...
  2 = max impropers/atom
  reading bonds ...
  27723 bonds
  reading angles ...
  40467 angles
  reading dihedrals ...
  56829 dihedrals
  reading impropers ...
  1034 impropers
Finding 1-2 1-3 1-4 neighbors ...
  special bond factors lj:   0          0          0         
  special bond factors coul: 0          0          0         
  4 = max # of 1-2 neighbors
  12 = max # of 1-3 neighbors
  24 = max # of 1-4 neighbors
  26 = max # of special neighbors
  special bonds CPU = 0.0116181 secs
  read_data CPU = 0.398667 secs
Replicating atoms ...
  orthogonal box = (-27.5 -38.5 -36.3646) to (27.5 38.5 36.3615)
  2 by 2 by 2 MPI processor grid
  32000 atoms
  27723 bonds
  40467 angles
  56829 dihedrals
  1034 impropers
Finding 1-2 1-3 1-4 neighbors ...
  special bond factors lj:   0          0          0         
  special bond factors coul: 0          0          0         
  4 = max # of 1-2 neighbors
  12 = max # of 1-3 neighbors
  24 = max # of 1-4 neighbors
  26 = max # of special neighbors
  special bonds CPU = 0.00887847 secs
  replicate CPU = 0.0468299 secs
Finding SHAKE clusters ...
  1617 = # of size 2 clusters
  3633 = # of size 3 clusters
  747 = # of size 4 clusters
  4233 = # of frozen angles
  find clusters CPU = 0.00554323 secs
PPPM initialization ...
  using 12-bit tables for long-range coulomb (src/kspace.cpp:332)
  G vector (1/distance) = 0.248835
  grid = 25 32 32
  stencil order = 5
  estimated absolute RMS force accuracy = 0.0355478
  estimated relative force accuracy = 0.000107051
  using double precision KISS FFT
  3d grid and FFT values/proc = 7938 3328
Neighbor list info ...
  update every 1 steps, delay 5 steps, check yes
  max neighbors/atom: 2000, page size: 100000
  master list distance cutoff = 12
  ghost atom cutoff = 12
  binsize = 6, bins = 10 13 13
  1 neighbor lists, perpetual/occasional/extra = 1 0 0
  (1) pair lj/charmm/coul/long, perpetual
      attributes: half, newton on
      pair build: half/bin/newton
      stencil: half/bin/3d/newton
      bin: standard
Setting up Verlet run ...
  Unit style    : real
  Current step  : 0
  Time step     : 2
Per MPI rank memory allocation (min/avg/max) = 42.12 | 42.41 | 42.52 Mbytes
---------------- Step        0 ----- CPU =      0.0000 (sec) ----------------
TotEng   =    -25356.2064 KinEng   =     21444.8313 Temp     =       299.0397 
PotEng   =    -46801.0377 E_bond   =      2537.9940 E_angle  =     10921.3742 
E_dihed  =      5211.7865 E_impro  =       213.5116 E_vdwl   =     -2307.8634 
E_coul   =    207025.8927 E_long   =   -270403.7333 Press    =      -149.3301 
Volume   =    307995.0335 
[MO833] Paramount Iteration,0,1,0.053470,0.689725
[MO833] Paramount Iteration,1,1,0.053467,0.689730
[MO833] Paramount Iteration,4,1,0.053453,0.689642
[MO833] Paramount Iteration,6,1,0.053460,0.689648
[MO833] Paramount Iteration,2,1,0.053463,0.689690
[MO833] Paramount Iteration,5,1,0.053453,0.689645
[MO833] Paramount Iteration,7,1,0.053460,0.689649
[MO833] Paramount Iteration,3,1,0.053464,0.689695
[MO833] Paramount Iteration,0,2,0.054612,0.744397
[MO833] Paramount Iteration,4,2,0.054587,0.744299
[MO833] Paramount Iteration,1,2,0.054652,0.744402
[MO833] Paramount Iteration,5,2,0.054627,0.744300
[MO833] Paramount Iteration,6,2,0.054576,0.744288
[MO833] Paramount Iteration,2,2,0.054637,0.744352
[MO833] Paramount Iteration,7,2,0.054612,0.744287
[MO833] Paramount Iteration,3,2,0.054592,0.744353
[MO833] Paramount Iteration,0,3,0.052333,0.796818
[MO833] Paramount Iteration,1,3,0.052400,0.796825
[MO833] Paramount Iteration,4,3,0.052427,0.796744
[MO833] Paramount Iteration,2,3,0.052375,0.796782
[MO833] Paramount Iteration,5,3,0.052393,0.796747
[MO833] Paramount Iteration,6,3,0.052432,0.796739
[MO833] Paramount Iteration,3,3,0.052412,0.796785
[MO833] Paramount Iteration,7,3,0.052391,0.796739
[MO833] Paramount Iteration,4,4,0.052893,0.849656
[MO833] Paramount Iteration,6,4,0.052858,0.849616
[MO833] Paramount Iteration,2,4,0.052890,0.849692
[MO833] Paramount Iteration,0,4,0.052895,0.849773
[MO833] Paramount Iteration,5,4,0.052859,0.849661
[MO833] Paramount Iteration,7,4,0.052818,0.849618
[MO833] Paramount Iteration,3,4,0.052848,0.849693
[MO833] Paramount Iteration,1,4,0.052934,0.849777
[MO833] Paramount Iteration,6,5,0.053068,0.902720
[MO833] Paramount Iteration,2,5,0.053068,0.902779
[MO833] Paramount Iteration,0,5,0.053009,0.902862
[MO833] Paramount Iteration,4,5,0.053105,0.902779
[MO833] Paramount Iteration,7,5,0.053024,0.902719
[MO833] Paramount Iteration,3,5,0.053025,0.902780
[MO833] Paramount Iteration,1,5,0.053072,0.902868
[MO833] Paramount Iteration,5,5,0.053070,0.902782
[MO833] Paramount Iteration,0,6,0.052691,0.955645
[MO833] Paramount Iteration,1,6,0.052764,0.955650
[MO833] Paramount Iteration,4,6,0.052755,0.955552
[MO833] Paramount Iteration,2,6,0.052802,0.955601
[MO833] Paramount Iteration,5,6,0.052721,0.955555
[MO833] Paramount Iteration,3,6,0.052767,0.955609
[MO833] Paramount Iteration,6,6,0.052785,0.955562
[MO833] Paramount Iteration,7,6,0.052823,0.955563
[MO833] Paramount Iteration,6,7,0.052659,1.008278
[MO833] Paramount Iteration,0,7,0.052742,1.008447
[MO833] Paramount Iteration,4,7,0.052756,1.008327
[MO833] Paramount Iteration,7,7,0.052696,1.008277
[MO833] Paramount Iteration,2,7,0.052708,1.008365
[MO833] Paramount Iteration,1,7,0.052782,1.008452
[MO833] Paramount Iteration,5,7,0.052724,1.008333
[MO833] Paramount Iteration,3,7,0.052742,1.008366
[MO833] Paramount Iteration,4,8,0.053119,1.061464
[MO833] Paramount Iteration,6,8,0.053096,1.061428
[MO833] Paramount Iteration,2,8,0.053116,1.061501
[MO833] Paramount Iteration,0,8,0.053056,1.061587
[MO833] Paramount Iteration,5,8,0.053090,1.061472
[MO833] Paramount Iteration,7,8,0.053131,1.061427
[MO833] Paramount Iteration,3,8,0.053071,1.061502
[MO833] Paramount Iteration,1,8,0.053121,1.061593
[MO833] Paramount Iteration,0,9,0.052761,1.114433
[MO833] Paramount Iteration,4,9,0.052785,1.114313
[MO833] Paramount Iteration,6,9,0.052776,1.114278
[MO833] Paramount Iteration,2,9,0.052801,1.114357
[MO833] Paramount Iteration,1,9,0.052826,1.114438
[MO833] Paramount Iteration,5,9,0.052829,1.114318
[MO833] Paramount Iteration,7,9,0.052831,1.114277
[MO833] Paramount Iteration,3,9,0.052837,1.114358
[MO833] Paramount Iteration,0,10,0.122191,1.236704
[MO833] Paramount Iteration,1,10,0.122255,1.236709
[MO833] Paramount Iteration,4,10,0.122237,1.236610
[MO833] Paramount Iteration,5,10,0.122279,1.236613
[MO833] Paramount Iteration,2,10,0.122271,1.236650
[MO833] Paramount Iteration,3,10,0.122235,1.236656
[MO833] Paramount Iteration,6,10,0.122323,1.236654
[MO833] Paramount Iteration,7,10,0.122357,1.236653
[MO833] Paramount Iteration,4,11,0.053231,1.289901
[MO833] Paramount Iteration,6,11,0.053192,1.289867
[MO833] Paramount Iteration,2,11,0.053259,1.289928
[MO833] Paramount Iteration,0,11,0.053257,1.290020
[MO833] Paramount Iteration,5,11,0.053275,1.289907
[MO833] Paramount Iteration,7,11,0.053148,1.289866
[MO833] Paramount Iteration,3,11,0.053195,1.289929
[MO833] Paramount Iteration,1,11,0.053295,1.290025
[MO833] Paramount Iteration,0,12,0.052697,1.342800
[MO833] Paramount Iteration,1,12,0.052766,1.342808
[MO833] Paramount Iteration,6,12,0.052750,1.342667
[MO833] Paramount Iteration,2,12,0.052766,1.342745
[MO833] Paramount Iteration,4,12,0.052793,1.342713
[MO833] Paramount Iteration,7,12,0.052782,1.342666
[MO833] Paramount Iteration,3,12,0.052799,1.342746
[MO833] Paramount Iteration,5,12,0.052759,1.342717
[MO833] Paramount Iteration,0,13,0.052760,1.395617
[MO833] Paramount Iteration,1,13,0.052800,1.395624
[MO833] Paramount Iteration,4,13,0.052742,1.395517
[MO833] Paramount Iteration,6,13,0.052802,1.395489
[MO833] Paramount Iteration,2,13,0.052787,1.395552
[MO833] Paramount Iteration,5,13,0.052784,1.395520
[MO833] Paramount Iteration,7,13,0.052759,1.395488
[MO833] Paramount Iteration,3,13,0.052743,1.395553
[MO833] Paramount Iteration,0,14,0.052746,1.448427
[MO833] Paramount Iteration,6,14,0.052719,1.448264
[MO833] Paramount Iteration,2,14,0.052722,1.448328
[MO833] Paramount Iteration,1,14,0.052790,1.448434
[MO833] Paramount Iteration,4,14,0.052795,1.448332
[MO833] Paramount Iteration,7,14,0.052753,1.448263
[MO833] Paramount Iteration,3,14,0.052757,1.448329
[MO833] Paramount Iteration,5,14,0.052759,1.448335
[MO833] Paramount Iteration,4,15,0.052850,1.501205
[MO833] Paramount Iteration,6,15,0.052865,1.501149
[MO833] Paramount Iteration,2,15,0.052849,1.501233
[MO833] Paramount Iteration,0,15,0.052823,1.501336
[MO833] Paramount Iteration,5,15,0.052815,1.501208
[MO833] Paramount Iteration,7,15,0.052822,1.501149
[MO833] Paramount Iteration,3,15,0.052885,1.501234
[MO833] Paramount Iteration,1,15,0.052889,1.501341
[MO833] Paramount Iteration,0,16,0.052962,1.554385
[MO833] Paramount Iteration,4,16,0.053026,1.554249
[MO833] Paramount Iteration,1,16,0.053032,1.554390
[MO833] Paramount Iteration,5,16,0.052992,1.554252
[MO833] Paramount Iteration,6,16,0.053033,1.554238
[MO833] Paramount Iteration,7,16,0.053066,1.554235
[MO833] Paramount Iteration,2,16,0.053048,1.554337
[MO833] Paramount Iteration,3,16,0.053085,1.554338
[MO833] Paramount Iteration,0,17,0.052950,1.607412
[MO833] Paramount Iteration,4,17,0.053006,1.607276
[MO833] Paramount Iteration,1,17,0.053009,1.607417
[MO833] Paramount Iteration,5,17,0.052974,1.607282
[MO833] Paramount Iteration,6,17,0.052973,1.607261
[MO833] Paramount Iteration,2,17,0.052964,1.607354
[MO833] Paramount Iteration,7,17,0.053004,1.607258
[MO833] Paramount Iteration,3,17,0.052999,1.607355
[MO833] Paramount Iteration,0,18,0.121541,1.728972
[MO833] Paramount Iteration,4,18,0.121526,1.728821
[MO833] Paramount Iteration,6,18,0.121486,1.728767
[MO833] Paramount Iteration,2,18,0.121446,1.728857
[MO833] Paramount Iteration,1,18,0.121419,1.728977
[MO833] Paramount Iteration,5,18,0.121497,1.728831
[MO833] Paramount Iteration,7,18,0.121443,1.728766
[MO833] Paramount Iteration,3,18,0.121481,1.728858
[MO833] Paramount Iteration,0,19,0.053332,1.782321
[MO833] Paramount Iteration,1,19,0.053214,1.782331
[MO833] Paramount Iteration,6,19,0.053344,1.782178
[MO833] Paramount Iteration,2,19,0.053353,1.782231
[MO833] Paramount Iteration,7,19,0.053394,1.782180
[MO833] Paramount Iteration,3,19,0.053314,1.782238
[MO833] Paramount Iteration,4,19,0.053388,1.782235
[MO833] Paramount Iteration,5,19,0.053352,1.782238
[MO833] Paramount Iteration,0,20,0.053406,1.835747
[MO833] Paramount Iteration,4,20,0.053349,1.835605
[MO833] Paramount Iteration,6,20,0.053351,1.835550
[MO833] Paramount Iteration,2,20,0.053383,1.835634
[MO833] Paramount Iteration,1,20,0.053266,1.835752
[MO833] Paramount Iteration,5,20,0.053314,1.835610
[MO833] Paramount Iteration,7,20,0.053311,1.835549
[MO833] Paramount Iteration,3,20,0.053341,1.835635
[MO833] Paramount Iteration,0,21,0.053991,1.889756
[MO833] Paramount Iteration,4,21,0.053995,1.889618
[MO833] Paramount Iteration,6,21,0.053954,1.889558
[MO833] Paramount Iteration,2,21,0.053988,1.889645
[MO833] Paramount Iteration,1,21,0.053861,1.889761
[MO833] Paramount Iteration,5,21,0.053962,1.889623
[MO833] Paramount Iteration,7,21,0.053987,1.889556
[MO833] Paramount Iteration,3,21,0.053943,1.889646
[MO833] Paramount Iteration,0,22,0.054510,1.944285
[MO833] Paramount Iteration,4,22,0.054488,1.944128
[MO833] Paramount Iteration,6,22,0.054491,1.944069
[MO833] Paramount Iteration,2,22,0.054497,1.944164
[MO833] Paramount Iteration,1,22,0.054397,1.944293
[MO833] Paramount Iteration,5,22,0.054458,1.944137
[MO833] Paramount Iteration,7,22,0.054448,1.944068
[MO833] Paramount Iteration,3,22,0.054452,1.944165
[MO833] Paramount Iteration,0,23,0.054570,1.998874
[MO833] Paramount Iteration,1,23,0.054453,1.998885
[MO833] Paramount Iteration,6,23,0.054559,1.998689
[MO833] Paramount Iteration,2,23,0.054589,1.998773
[MO833] Paramount Iteration,4,23,0.054622,1.998768
[MO833] Paramount Iteration,7,23,0.054597,1.998688
[MO833] Paramount Iteration,3,23,0.054541,1.998774
[MO833] Paramount Iteration,5,23,0.054587,1.998771
[MO833] Paramount Iteration,6,24,0.054785,2.053495
[MO833] Paramount Iteration,2,24,0.054786,2.053580
[MO833] Paramount Iteration,0,24,0.054809,2.053703
[MO833] Paramount Iteration,4,24,0.054770,2.053558
[MO833] Paramount Iteration,7,24,0.054741,2.053494
[MO833] Paramount Iteration,3,24,0.054742,2.053581
[MO833] Paramount Iteration,1,24,0.054661,2.053708
[MO833] Paramount Iteration,5,24,0.054740,2.053564
[MO833] Paramount Iteration,0,25,0.054339,2.108150
[MO833] Paramount Iteration,1,25,0.054427,2.108155
[MO833] Paramount Iteration,4,25,0.054386,2.108007
[MO833] Paramount Iteration,6,25,0.054464,2.107979
[MO833] Paramount Iteration,5,25,0.054428,2.108010
[MO833] Paramount Iteration,7,25,0.054405,2.107973
[MO833] Paramount Iteration,2,25,0.054478,2.108082
[MO833] Paramount Iteration,3,25,0.054431,2.108083
[MO833] Paramount Iteration,0,26,0.124801,2.233018
[MO833] Paramount Iteration,4,26,0.124827,2.232854
[MO833] Paramount Iteration,1,26,0.124850,2.233023
[MO833] Paramount Iteration,5,26,0.124793,2.232859
[MO833] Paramount Iteration,6,26,0.124800,2.232831
[MO833] Paramount Iteration,7,26,0.124831,2.232825
[MO833] Paramount Iteration,2,26,0.124830,2.232937
[MO833] Paramount Iteration,3,26,0.124784,2.232938
[MO833] Paramount Iteration,0,27,0.054856,2.287959
[MO833] Paramount Iteration,1,27,0.054930,2.287970
[MO833] Paramount Iteration,6,27,0.054879,2.287760
[MO833] Paramount Iteration,2,27,0.054856,2.287831
[MO833] Paramount Iteration,4,27,0.054968,2.287842
[MO833] Paramount Iteration,7,27,0.054914,2.287759
[MO833] Paramount Iteration,3,27,0.054811,2.287833
[MO833] Paramount Iteration,5,27,0.054929,2.287841
[MO833] Paramount Iteration,0,28,0.054609,2.342638
[MO833] Paramount Iteration,6,28,0.054621,2.342437
[MO833] Paramount Iteration,2,28,0.054638,2.342505
[MO833] Paramount Iteration,1,28,0.054661,2.342644
[MO833] Paramount Iteration,4,28,0.054611,2.342514
[MO833] Paramount Iteration,7,28,0.054657,2.342436
[MO833] Paramount Iteration,3,28,0.054593,2.342507
[MO833] Paramount Iteration,5,28,0.054653,2.342517
[MO833] Paramount Iteration,0,29,0.054969,2.397626
[MO833] Paramount Iteration,1,29,0.054836,2.397631
[MO833] Paramount Iteration,4,29,0.054962,2.397496
[MO833] Paramount Iteration,5,29,0.054926,2.397499
[MO833] Paramount Iteration,6,29,0.055016,2.397473
[MO833] Paramount Iteration,2,29,0.055007,2.397533
[MO833] Paramount Iteration,7,29,0.054976,2.397472
[MO833] Paramount Iteration,3,29,0.054964,2.397536
[MO833] Paramount Iteration,0,30,0.054115,2.451757
[MO833] Paramount Iteration,6,30,0.054024,2.451550
[MO833] Paramount Iteration,2,30,0.054064,2.451617
[MO833] Paramount Iteration,1,30,0.054033,2.451765
[MO833] Paramount Iteration,4,30,0.054068,2.451625
[MO833] Paramount Iteration,7,30,0.054059,2.451549
[MO833] Paramount Iteration,3,30,0.054018,2.451617
[MO833] Paramount Iteration,5,30,0.054110,2.451629
[MO833] Paramount Iteration,0,31,0.054685,2.506464
[MO833] Paramount Iteration,1,31,0.054560,2.506471
[MO833] Paramount Iteration,4,31,0.054643,2.506328
[MO833] Paramount Iteration,6,31,0.054684,2.506286
[MO833] Paramount Iteration,2,31,0.054716,2.506352
[MO833] Paramount Iteration,5,31,0.054684,2.506330
[MO833] Paramount Iteration,7,31,0.054717,2.506284
[MO833] Paramount Iteration,3,31,0.054675,2.506355
[MO833] Paramount Iteration,0,32,0.054102,2.560589
[MO833] Paramount Iteration,2,32,0.054075,2.560449
[MO833] Paramount Iteration,1,32,0.053978,2.560595
[MO833] Paramount Iteration,4,32,0.054064,2.560451
[MO833] Paramount Iteration,6,32,0.054048,2.560389
[MO833] Paramount Iteration,3,32,0.054031,2.560450
[MO833] Paramount Iteration,5,32,0.054105,2.560454
[MO833] Paramount Iteration,7,32,0.054087,2.560394
[MO833] Paramount Iteration,0,33,0.054027,2.614635
[MO833] Paramount Iteration,1,33,0.053873,2.614643
[MO833] Paramount Iteration,4,33,0.053985,2.614496
[MO833] Paramount Iteration,2,33,0.054053,2.614522
[MO833] Paramount Iteration,5,33,0.054023,2.614499
[MO833] Paramount Iteration,6,33,0.054012,2.614451
[MO833] Paramount Iteration,3,33,0.054012,2.614526
[MO833] Paramount Iteration,7,33,0.054045,2.614450
[MO833] Paramount Iteration,0,34,0.054822,2.669478
[MO833] Paramount Iteration,6,34,0.054747,2.669253
[MO833] Paramount Iteration,2,34,0.054797,2.669342
[MO833] Paramount Iteration,1,34,0.054674,2.669484
[MO833] Paramount Iteration,4,34,0.054773,2.669333
[MO833] Paramount Iteration,7,34,0.054783,2.669252
[MO833] Paramount Iteration,3,34,0.054751,2.669343
[MO833] Paramount Iteration,5,34,0.054815,2.669336
[MO833] Paramount Iteration,0,35,0.054494,2.723992
[MO833] Paramount Iteration,1,35,0.054345,2.723999
[MO833] Paramount Iteration,4,35,0.054445,2.723840
[MO833] Paramount Iteration,6,35,0.054487,2.723796
[MO833] Paramount Iteration,2,35,0.054510,2.723870
[MO833] Paramount Iteration,5,35,0.054488,2.723843
[MO833] Paramount Iteration,7,35,0.054523,2.723795
[MO833] Paramount Iteration,3,35,0.054464,2.723872
[MO833] Paramount Iteration,0,36,0.123319,2.847334
[MO833] Paramount Iteration,4,36,0.123267,2.847163
[MO833] Paramount Iteration,6,36,0.123235,2.847082
[MO833] Paramount Iteration,2,36,0.123279,2.847174
[MO833] Paramount Iteration,1,36,0.123209,2.847349
[MO833] Paramount Iteration,5,36,0.123301,2.847166
[MO833] Paramount Iteration,7,36,0.123268,2.847081
[MO833] Paramount Iteration,3,36,0.123231,2.847173
[MO833] Paramount Iteration,0,37,0.053765,2.901119
[MO833] Paramount Iteration,6,37,0.053749,2.900889
[MO833] Paramount Iteration,1,37,0.053654,2.901126
[MO833] Paramount Iteration,4,37,0.053744,2.900967
[MO833] Paramount Iteration,7,37,0.053785,2.900888
[MO833] Paramount Iteration,2,37,0.053806,2.901000
[MO833] Paramount Iteration,5,37,0.053786,2.900970
[MO833] Paramount Iteration,3,37,0.053761,2.901001
[MO833] Paramount Iteration,0,38,0.053965,2.955106
[MO833] Paramount Iteration,1,38,0.053839,2.955111
[MO833] Paramount Iteration,4,38,0.053926,2.954952
[MO833] Paramount Iteration,2,38,0.053979,2.954995
[MO833] Paramount Iteration,5,38,0.053967,2.954955
[MO833] Paramount Iteration,6,38,0.053981,2.954926
[MO833] Paramount Iteration,3,38,0.053939,2.955001
[MO833] Paramount Iteration,7,38,0.054017,2.954927
[MO833] Paramount Iteration,0,39,0.053676,3.008802
[MO833] Paramount Iteration,1,39,0.053569,3.008812
[MO833] Paramount Iteration,4,39,0.053639,3.008654
[MO833] Paramount Iteration,6,39,0.053602,3.008584
[MO833] Paramount Iteration,2,39,0.053646,3.008662
[MO833] Paramount Iteration,5,39,0.053681,3.008657
[MO833] Paramount Iteration,7,39,0.053635,3.008583
[MO833] Paramount Iteration,3,39,0.053604,3.008663
[MO833] Paramount Iteration,0,40,0.054115,3.062941
[MO833] Paramount Iteration,6,40,0.054061,3.062701
[MO833] Paramount Iteration,2,40,0.054098,3.062785
[MO833] Paramount Iteration,1,40,0.053988,3.062952
[MO833] Paramount Iteration,7,40,0.054097,3.062701
[MO833] Paramount Iteration,3,40,0.054054,3.062786
[MO833] Paramount Iteration,4,40,0.054068,3.062786
[MO833] Paramount Iteration,5,40,0.054111,3.062791
[MO833] Paramount Iteration,0,41,0.054029,3.116991
[MO833] Paramount Iteration,4,41,0.053944,3.116794
[MO833] Paramount Iteration,6,41,0.053972,3.116728
[MO833] Paramount Iteration,2,41,0.054028,3.116832
[MO833] Paramount Iteration,1,41,0.053898,3.116999
[MO833] Paramount Iteration,5,41,0.053989,3.116800
[MO833] Paramount Iteration,7,41,0.054005,3.116727
[MO833] Paramount Iteration,3,41,0.053966,3.116833
[MO833] Paramount Iteration,0,42,0.054057,3.171093
[MO833] Paramount Iteration,6,42,0.054070,3.170850
[MO833] Paramount Iteration,2,42,0.054078,3.170934
[MO833] Paramount Iteration,1,42,0.053945,3.171101
[MO833] Paramount Iteration,4,42,0.054075,3.170932
[MO833] Paramount Iteration,7,42,0.054104,3.170849
[MO833] Paramount Iteration,3,42,0.054033,3.170935
[MO833] Paramount Iteration,5,42,0.054116,3.170935
[MO833] Paramount Iteration,0,43,0.053875,3.224992
[MO833] Paramount Iteration,4,43,0.053793,3.224787
[MO833] Paramount Iteration,6,43,0.053820,3.224724
[MO833] Paramount Iteration,2,43,0.053883,3.224836
[MO833] Paramount Iteration,1,43,0.053800,3.224997
[MO833] Paramount Iteration,5,43,0.053836,3.224792
[MO833] Paramount Iteration,7,43,0.053850,3.224720
[MO833] Paramount Iteration,3,43,0.053838,3.224836
[MO833] Paramount Iteration,0,44,0.053581,3.278592
[MO833] Paramount Iteration,6,44,0.053568,3.278344
[MO833] Paramount Iteration,2,44,0.053572,3.278426
[MO833] Paramount Iteration,1,44,0.053414,3.278600
[MO833] Paramount Iteration,4,44,0.053588,3.278431
[MO833] Paramount Iteration,7,44,0.053603,3.278343
[MO833] Paramount Iteration,3,44,0.053528,3.278427
[MO833] Paramount Iteration,5,44,0.053627,3.278434
[MO833] Paramount Iteration,0,45,0.122940,3.401558
[MO833] Paramount Iteration,1,45,0.122787,3.401567
[MO833] Paramount Iteration,4,45,0.122896,3.401385
[MO833] Paramount Iteration,2,45,0.122978,3.401423
[MO833] Paramount Iteration,5,45,0.122937,3.401388
[MO833] Paramount Iteration,6,45,0.122950,3.401352
[MO833] Paramount Iteration,3,45,0.122941,3.401431
[MO833] Paramount Iteration,7,45,0.122988,3.401353
[MO833] Paramount Iteration,0,46,0.053809,3.455390
[MO833] Paramount Iteration,1,46,0.053702,3.455398
[MO833] Paramount Iteration,4,46,0.053759,3.455218
[MO833] Paramount Iteration,2,46,0.053809,3.455256
[MO833] Paramount Iteration,5,46,0.053810,3.455221
[MO833] Paramount Iteration,6,46,0.053774,3.455182
[MO833] Paramount Iteration,3,46,0.053772,3.455263
[MO833] Paramount Iteration,7,46,0.053810,3.455183
[MO833] Paramount Iteration,0,47,0.054254,3.509663
[MO833] Paramount Iteration,4,47,0.054202,3.509479
[MO833] Paramount Iteration,2,47,0.054221,3.509499
[MO833] Paramount Iteration,1,47,0.054147,3.509670
[MO833] Paramount Iteration,5,47,0.054244,3.509482
[MO833] Paramount Iteration,6,47,0.054183,3.509419
[MO833] Paramount Iteration,3,47,0.054179,3.509502
[MO833] Paramount Iteration,7,47,0.054218,3.509418
[MO833] Paramount Iteration,0,48,0.054185,3.563874
[MO833] Paramount Iteration,1,48,0.054052,3.563881
[MO833] Paramount Iteration,4,48,0.054163,3.563702
[MO833] Paramount Iteration,6,48,0.054164,3.563640
[MO833] Paramount Iteration,2,48,0.054201,3.563719
[MO833] Paramount Iteration,5,48,0.054205,3.563705
[MO833] Paramount Iteration,7,48,0.054198,3.563639
[MO833] Paramount Iteration,3,48,0.054161,3.563723
[MO833] Paramount Iteration,0,49,0.055595,3.619493
[MO833] Paramount Iteration,4,49,0.055512,3.619277
[MO833] Paramount Iteration,6,49,0.055533,3.619226
[MO833] Paramount Iteration,2,49,0.055566,3.619308
[MO833] Paramount Iteration,1,49,0.055503,3.619498
[MO833] Paramount Iteration,5,49,0.055555,3.619282
[MO833] Paramount Iteration,7,49,0.055567,3.619225
[MO833] Paramount Iteration,3,49,0.055524,3.619312
---------------- Step       50 ----- CPU =      3.0546 (sec) ----------------
TotEng   =    -25330.0317 KinEng   =     21501.0005 Temp     =       299.8229 
PotEng   =    -46831.0321 E_bond   =      2471.7035 E_angle  =     10836.5102 
E_dihed  =      5239.6319 E_impro  =       227.1218 E_vdwl   =     -1993.2873 
E_coul   =    206797.6802 E_long   =   -270410.3926 Press    =       237.6571 
Volume   =    308031.6762 
[MO833] Paramount Iteration,0,50,0.071852,3.691364
[MO833] Paramount Iteration,6,50,0.071762,3.691045
[MO833] Paramount Iteration,2,50,0.071827,3.691155
[MO833] Paramount Iteration,7,50,0.071798,3.691046
[MO833] Paramount Iteration,3,50,0.071785,3.691157
[MO833] Paramount Iteration,4,50,0.071792,3.691129
[MO833] Paramount Iteration,5,50,0.071839,3.691138
[MO833] Paramount Iteration,1,50,0.071926,3.691561
[MO833] Paramount Iteration,0,51,0.054290,3.745691
[MO833] Paramount Iteration,1,51,0.054104,3.745698
[MO833] Paramount Iteration,4,51,0.054328,3.745505
[MO833] Paramount Iteration,2,51,0.054371,3.745544
[MO833] Paramount Iteration,5,51,0.054362,3.745508
[MO833] Paramount Iteration,6,51,0.054363,3.745470
[MO833] Paramount Iteration,3,51,0.054333,3.745552
[MO833] Paramount Iteration,7,51,0.054398,3.745469
[MO833] Paramount Iteration,0,52,0.054064,3.799773
[MO833] Paramount Iteration,2,52,0.054017,3.799586
[MO833] Paramount Iteration,1,52,0.053979,3.799784
[MO833] Paramount Iteration,4,52,0.054035,3.799603
[MO833] Paramount Iteration,6,52,0.053982,3.799506
[MO833] Paramount Iteration,3,52,0.053981,3.799594
[MO833] Paramount Iteration,5,52,0.054077,3.799606
[MO833] Paramount Iteration,7,52,0.054018,3.799507
[MO833] Paramount Iteration,0,53,0.054523,3.854318
[MO833] Paramount Iteration,4,53,0.054441,3.854101
[MO833] Paramount Iteration,6,53,0.054452,3.854015
[MO833] Paramount Iteration,2,53,0.054527,3.854136
[MO833] Paramount Iteration,1,53,0.054430,3.854323
[MO833] Paramount Iteration,5,53,0.054482,3.854106
[MO833] Paramount Iteration,7,53,0.054483,3.854010
[MO833] Paramount Iteration,3,53,0.054485,3.854137
[MO833] Paramount Iteration,0,54,0.125269,3.979606
[MO833] Paramount Iteration,4,54,0.125220,3.979382
[MO833] Paramount Iteration,6,54,0.125240,3.979313
[MO833] Paramount Iteration,1,54,0.125153,3.979611
[MO833] Paramount Iteration,5,54,0.125264,3.979387
[MO833] Paramount Iteration,7,54,0.125276,3.979312
[MO833] Paramount Iteration,2,54,0.125277,3.979431
[MO833] Paramount Iteration,3,54,0.125234,3.979432
[MO833] Paramount Iteration,0,55,0.055024,4.034648
[MO833] Paramount Iteration,6,55,0.054990,4.034359
[MO833] Paramount Iteration,2,55,0.054989,4.034443
[MO833] Paramount Iteration,1,55,0.054906,4.034658
[MO833] Paramount Iteration,4,55,0.055015,4.034458
[MO833] Paramount Iteration,7,55,0.055026,4.034358
[MO833] Paramount Iteration,3,55,0.054944,4.034444
[MO833] Paramount Iteration,5,55,0.055061,4.034464
[MO833] Paramount Iteration,0,56,0.054962,4.089635
[MO833] Paramount Iteration,6,56,0.054930,4.089342
[MO833] Paramount Iteration,2,56,0.054970,4.089430
[MO833] Paramount Iteration,1,56,0.054838,4.089646
[MO833] Paramount Iteration,4,56,0.054935,4.089452
[MO833] Paramount Iteration,7,56,0.054965,4.089341
[MO833] Paramount Iteration,3,56,0.054929,4.089431
[MO833] Paramount Iteration,5,56,0.054974,4.089453
[MO833] Paramount Iteration,0,57,0.054165,4.143820
[MO833] Paramount Iteration,4,57,0.054072,4.143587
[MO833] Paramount Iteration,6,57,0.054110,4.143504
[MO833] Paramount Iteration,2,57,0.054173,4.143622
[MO833] Paramount Iteration,1,57,0.054070,4.143825
[MO833] Paramount Iteration,5,57,0.054115,4.143591
[MO833] Paramount Iteration,7,57,0.054144,4.143503
[MO833] Paramount Iteration,3,57,0.054129,4.143623
[MO833] Paramount Iteration,0,58,0.055440,4.199282
[MO833] Paramount Iteration,4,58,0.055405,4.199054
[MO833] Paramount Iteration,6,58,0.055405,4.198963
[MO833] Paramount Iteration,2,58,0.055445,4.199085
[MO833] Paramount Iteration,1,58,0.055311,4.199287
[MO833] Paramount Iteration,5,58,0.055448,4.199060
[MO833] Paramount Iteration,7,58,0.055440,4.198962
[MO833] Paramount Iteration,3,58,0.055402,4.199086
[MO833] Paramount Iteration,0,59,0.054896,4.254211
[MO833] Paramount Iteration,6,59,0.054890,4.253906
[MO833] Paramount Iteration,2,59,0.054902,4.254010
[MO833] Paramount Iteration,1,59,0.054768,4.254218
[MO833] Paramount Iteration,4,59,0.054893,4.254008
[MO833] Paramount Iteration,7,59,0.054923,4.253905
[MO833] Paramount Iteration,3,59,0.054860,4.254011
[MO833] Paramount Iteration,5,59,0.054935,4.254011
[MO833] Paramount Iteration,0,60,0.055895,4.310129
[MO833] Paramount Iteration,6,60,0.055839,4.309802
[MO833] Paramount Iteration,2,60,0.055877,4.309905
[MO833] Paramount Iteration,1,60,0.055771,4.310139
[MO833] Paramount Iteration,4,60,0.055861,4.309927
[MO833] Paramount Iteration,7,60,0.055873,4.309801
[MO833] Paramount Iteration,3,60,0.055831,4.309903
[MO833] Paramount Iteration,5,60,0.055904,4.309932
[MO833] Paramount Iteration,0,61,0.055322,4.365470
[MO833] Paramount Iteration,2,61,0.055336,4.365262
[MO833] Paramount Iteration,1,61,0.055195,4.365477
[MO833] Paramount Iteration,4,61,0.055273,4.365265
[MO833] Paramount Iteration,3,61,0.055290,4.365263
[MO833] Paramount Iteration,5,61,0.055315,4.365268
[MO833] Paramount Iteration,6,61,0.055376,4.365237
[MO833] Paramount Iteration,7,61,0.055410,4.365236
[MO833] Paramount Iteration,0,62,0.054979,4.420528
[MO833] Paramount Iteration,1,62,0.055038,4.420533
[MO833] Paramount Iteration,4,62,0.054989,4.420314
[MO833] Paramount Iteration,2,62,0.055070,4.420350
[MO833] Paramount Iteration,5,62,0.055027,4.420317
[MO833] Paramount Iteration,6,62,0.054972,4.420266
[MO833] Paramount Iteration,3,62,0.055035,4.420359
[MO833] Paramount Iteration,7,62,0.055010,4.420267
[MO833] Paramount Iteration,4,63,0.055229,4.475601
[MO833] Paramount Iteration,6,63,0.055193,4.475516
[MO833] Paramount Iteration,2,63,0.055256,4.475632
[MO833] Paramount Iteration,0,63,0.055307,4.475853
[MO833] Paramount Iteration,5,63,0.055274,4.475609
[MO833] Paramount Iteration,7,63,0.055230,4.475515
[MO833] Paramount Iteration,3,63,0.055213,4.475633
[MO833] Paramount Iteration,1,63,0.055220,4.475859
[MO833] Paramount Iteration,0,64,0.126127,4.602091
[MO833] Paramount Iteration,2,64,0.126217,4.601871
[MO833] Paramount Iteration,1,64,0.126218,4.602098
[MO833] Paramount Iteration,4,64,0.126218,4.601881
[MO833] Paramount Iteration,6,64,0.126202,4.601779
[MO833] Paramount Iteration,3,64,0.126174,4.601874
[MO833] Paramount Iteration,5,64,0.126260,4.601884
[MO833] Paramount Iteration,7,64,0.126238,4.601778
[MO833] Paramount Iteration,0,65,0.055265,4.657436
[MO833] Paramount Iteration,1,65,0.055328,4.657443
[MO833] Paramount Iteration,4,65,0.055284,4.657216
[MO833] Paramount Iteration,6,65,0.055324,4.657125
[MO833] Paramount Iteration,2,65,0.055337,4.657228
[MO833] Paramount Iteration,5,65,0.055318,4.657219
[MO833] Paramount Iteration,7,65,0.055283,4.657124
[MO833] Paramount Iteration,3,65,0.055292,4.657229
[MO833] Paramount Iteration,0,66,0.055375,4.712832
[MO833] Paramount Iteration,6,66,0.055359,4.712506
[MO833] Paramount Iteration,1,66,0.055295,4.712844
[MO833] Paramount Iteration,4,66,0.055351,4.712623
[MO833] Paramount Iteration,7,66,0.055316,4.712505
[MO833] Paramount Iteration,2,66,0.055365,4.712615
[MO833] Paramount Iteration,5,66,0.055384,4.712626
[MO833] Paramount Iteration,3,66,0.055319,4.712616
[MO833] Paramount Iteration,0,67,0.055048,4.767899
[MO833] Paramount Iteration,4,67,0.054958,4.767642
[MO833] Paramount Iteration,6,67,0.055023,4.767547
[MO833] Paramount Iteration,2,67,0.055044,4.767678
[MO833] Paramount Iteration,1,67,0.054955,4.767904
[MO833] Paramount Iteration,5,67,0.055001,4.767647
[MO833] Paramount Iteration,7,67,0.054979,4.767546
[MO833] Paramount Iteration,3,67,0.054997,4.767679
[MO833] Paramount Iteration,4,68,0.055312,4.823019
[MO833] Paramount Iteration,6,68,0.055357,4.822930
[MO833] Paramount Iteration,0,68,0.055283,4.823265
[MO833] Paramount Iteration,5,68,0.055356,4.823024
[MO833] Paramount Iteration,7,68,0.055310,4.822926
[MO833] Paramount Iteration,2,68,0.055367,4.823065
[MO833] Paramount Iteration,1,68,0.055347,4.823269
[MO833] Paramount Iteration,3,68,0.055322,4.823066
[MO833] Paramount Iteration,0,69,0.055229,4.878593
[MO833] Paramount Iteration,4,69,0.055249,4.878329
[MO833] Paramount Iteration,6,69,0.055282,4.878229
[MO833] Paramount Iteration,2,69,0.055270,4.878354
[MO833] Paramount Iteration,1,69,0.055310,4.878600
[MO833] Paramount Iteration,5,69,0.055296,4.878337
[MO833] Paramount Iteration,7,69,0.055239,4.878228
[MO833] Paramount Iteration,3,69,0.055226,4.878355
[MO833] Paramount Iteration,0,70,0.054290,4.932904
[MO833] Paramount Iteration,1,70,0.054179,4.932911
[MO833] Paramount Iteration,4,70,0.054274,4.932667
[MO833] Paramount Iteration,6,70,0.054317,4.932570
[MO833] Paramount Iteration,2,70,0.054302,4.932678
[MO833] Paramount Iteration,5,70,0.054317,4.932670
[MO833] Paramount Iteration,7,70,0.054273,4.932569
[MO833] Paramount Iteration,3,70,0.054260,4.932679
[MO833] Paramount Iteration,0,71,0.054685,4.987672
[MO833] Paramount Iteration,4,71,0.054674,4.987402
[MO833] Paramount Iteration,6,71,0.054709,4.987297
[MO833] Paramount Iteration,2,71,0.054722,4.987423
[MO833] Paramount Iteration,1,71,0.054746,4.987676
[MO833] Paramount Iteration,5,71,0.054720,4.987408
[MO833] Paramount Iteration,7,71,0.054670,4.987296
[MO833] Paramount Iteration,3,71,0.054677,4.987424
[MO833] Paramount Iteration,0,72,0.054445,5.042137
[MO833] Paramount Iteration,1,72,0.054320,5.042142
[MO833] Paramount Iteration,4,72,0.054427,5.041886
[MO833] Paramount Iteration,6,72,0.054499,5.041815
[MO833] Paramount Iteration,2,72,0.054466,5.041911
[MO833] Paramount Iteration,5,72,0.054467,5.041889
[MO833] Paramount Iteration,7,72,0.054455,5.041814
[MO833] Paramount Iteration,3,72,0.054425,5.041915
[MO833] Paramount Iteration,0,73,0.124092,5.166311
[MO833] Paramount Iteration,6,73,0.124125,5.165959
[MO833] Paramount Iteration,2,73,0.124125,5.166055
[MO833] Paramount Iteration,1,73,0.124153,5.166316
[MO833] Paramount Iteration,4,73,0.124125,5.166064
[MO833] Paramount Iteration,7,73,0.124085,5.165960
[MO833] Paramount Iteration,3,73,0.124090,5.166063
[MO833] Paramount Iteration,5,73,0.124159,5.166067
[MO833] Paramount Iteration,0,74,0.055327,5.221658
[MO833] Paramount Iteration,6,74,0.055326,5.221303
[MO833] Paramount Iteration,2,74,0.055331,5.221408
[MO833] Paramount Iteration,1,74,0.055202,5.221666
[MO833] Paramount Iteration,4,74,0.055308,5.221430
[MO833] Paramount Iteration,7,74,0.055284,5.221303
[MO833] Paramount Iteration,3,74,0.055287,5.221409
[MO833] Paramount Iteration,5,74,0.055345,5.221429
[MO833] Paramount Iteration,4,75,0.054569,5.276063
[MO833] Paramount Iteration,6,75,0.054626,5.275949
[MO833] Paramount Iteration,2,75,0.054651,5.276081
[MO833] Paramount Iteration,0,75,0.054655,5.276333
[MO833] Paramount Iteration,5,75,0.054616,5.276069
[MO833] Paramount Iteration,7,75,0.054584,5.275949
[MO833] Paramount Iteration,3,75,0.054606,5.276082
[MO833] Paramount Iteration,1,75,0.054523,5.276338
[MO833] Paramount Iteration,0,76,0.055036,5.331454
[MO833] Paramount Iteration,1,76,0.055103,5.331460
[MO833] Paramount Iteration,4,76,0.055091,5.331207
[MO833] Paramount Iteration,5,76,0.055124,5.331210
[MO833] Paramount Iteration,2,76,0.055145,5.331244
[MO833] Paramount Iteration,6,76,0.055174,5.331147
[MO833] Paramount Iteration,3,76,0.055103,5.331248
[MO833] Paramount Iteration,7,76,0.055131,5.331146
[MO833] Paramount Iteration,0,77,0.054798,5.386312
[MO833] Paramount Iteration,2,77,0.054805,5.386072
[MO833] Paramount Iteration,1,77,0.054841,5.386319
[MO833] Paramount Iteration,4,77,0.054806,5.386069
[MO833] Paramount Iteration,6,77,0.054797,5.385967
[MO833] Paramount Iteration,3,77,0.054764,5.386075
[MO833] Paramount Iteration,5,77,0.054845,5.386072
[MO833] Paramount Iteration,7,77,0.054755,5.385966
[MO833] Paramount Iteration,0,78,0.054543,5.440876
[MO833] Paramount Iteration,2,78,0.054520,5.440614
[MO833] Paramount Iteration,1,78,0.054415,5.440883
[MO833] Paramount Iteration,6,78,0.054522,5.440510
[MO833] Paramount Iteration,3,78,0.054481,5.440619
[MO833] Paramount Iteration,4,78,0.054498,5.440628
[MO833] Paramount Iteration,7,78,0.054481,5.440509
[MO833] Paramount Iteration,5,78,0.054538,5.440631
[MO833] Paramount Iteration,0,79,0.055538,5.496536
[MO833] Paramount Iteration,1,79,0.055641,5.496541
[MO833] Paramount Iteration,4,79,0.055595,5.496284
[MO833] Paramount Iteration,2,79,0.055674,5.496308
[MO833] Paramount Iteration,5,79,0.055635,5.496287
[MO833] Paramount Iteration,3,79,0.055636,5.496315
[MO833] Paramount Iteration,6,79,0.055685,5.496213
[MO833] Paramount Iteration,7,79,0.055643,5.496212
[MO833] Paramount Iteration,0,80,0.054624,5.551222
[MO833] Paramount Iteration,1,80,0.054668,5.551228
[MO833] Paramount Iteration,4,80,0.054621,5.550967
[MO833] Paramount Iteration,6,80,0.054643,5.550877
[MO833] Paramount Iteration,2,80,0.054651,5.550983
[MO833] Paramount Iteration,5,80,0.054662,5.550970
[MO833] Paramount Iteration,7,80,0.054610,5.550876
[MO833] Paramount Iteration,3,80,0.054610,5.550986
[MO833] Paramount Iteration,0,81,0.054573,5.605816
[MO833] Paramount Iteration,1,81,0.054440,5.605823
[MO833] Paramount Iteration,4,81,0.054539,5.605564
[MO833] Paramount Iteration,2,81,0.054583,5.605586
[MO833] Paramount Iteration,5,81,0.054579,5.605567
[MO833] Paramount Iteration,6,81,0.054582,5.605481
[MO833] Paramount Iteration,3,81,0.054540,5.605590
[MO833] Paramount Iteration,7,81,0.054541,5.605481
[MO833] Paramount Iteration,0,82,0.054466,5.660302
[MO833] Paramount Iteration,4,82,0.054390,5.660012
[MO833] Paramount Iteration,6,82,0.054418,5.659921
[MO833] Paramount Iteration,1,82,0.054330,5.660307
[MO833] Paramount Iteration,5,82,0.054432,5.660017
[MO833] Paramount Iteration,7,82,0.054370,5.659915
[MO833] Paramount Iteration,2,82,0.054463,5.660069
[MO833] Paramount Iteration,3,82,0.054419,5.660070
[MO833] Paramount Iteration,0,83,0.124179,5.784500
[MO833] Paramount Iteration,1,83,0.124040,5.784507
[MO833] Paramount Iteration,4,83,0.124200,5.784231
[MO833] Paramount Iteration,6,83,0.124199,5.784138
[MO833] Paramount Iteration,2,83,0.124166,5.784258
[MO833] Paramount Iteration,5,83,0.124167,5.784234
[MO833] Paramount Iteration,7,83,0.124155,5.784137
[MO833] Paramount Iteration,3,83,0.124129,5.784259
[MO833] Paramount Iteration,0,84,0.054450,5.839012
[MO833] Paramount Iteration,1,84,0.054492,5.839017
[MO833] Paramount Iteration,4,84,0.054444,5.838732
[MO833] Paramount Iteration,6,84,0.054488,5.838644
[MO833] Paramount Iteration,2,84,0.054477,5.838753
[MO833] Paramount Iteration,5,84,0.054484,5.838735
[MO833] Paramount Iteration,7,84,0.054447,5.838643
[MO833] Paramount Iteration,3,84,0.054420,5.838757
[MO833] Paramount Iteration,0,85,0.054347,5.893432
[MO833] Paramount Iteration,1,85,0.054403,5.893439
[MO833] Paramount Iteration,4,85,0.054413,5.893164
[MO833] Paramount Iteration,2,85,0.054424,5.893196
[MO833] Paramount Iteration,5,85,0.054379,5.893167
[MO833] Paramount Iteration,6,85,0.054392,5.893089
[MO833] Paramount Iteration,3,85,0.054387,5.893203
[MO833] Paramount Iteration,7,85,0.054428,5.893090
[MO833] Paramount Iteration,0,86,0.054524,5.947977
[MO833] Paramount Iteration,1,86,0.054387,5.947982
[MO833] Paramount Iteration,4,86,0.054522,5.947704
[MO833] Paramount Iteration,6,86,0.054469,5.947614
[MO833] Paramount Iteration,2,86,0.054471,5.947722
[MO833] Paramount Iteration,5,86,0.054489,5.947707
[MO833] Paramount Iteration,7,86,0.054505,5.947615
[MO833] Paramount Iteration,3,86,0.054512,5.947730
[MO833] Paramount Iteration,0,87,0.054725,6.002764
[MO833] Paramount Iteration,1,87,0.054774,6.002775
[MO833] Paramount Iteration,6,87,0.054729,6.002398
[MO833] Paramount Iteration,2,87,0.054731,6.002511
[MO833] Paramount Iteration,4,87,0.054794,6.002516
[MO833] Paramount Iteration,7,87,0.054763,6.002397
[MO833] Paramount Iteration,3,87,0.054766,6.002511
[MO833] Paramount Iteration,5,87,0.054758,6.002519
[MO833] Paramount Iteration,0,88,0.054386,6.057213
[MO833] Paramount Iteration,1,88,0.054429,6.057219
[MO833] Paramount Iteration,4,88,0.054407,6.056939
[MO833] Paramount Iteration,5,88,0.054375,6.056942
[MO833] Paramount Iteration,2,88,0.054430,6.057000
[MO833] Paramount Iteration,3,88,0.054475,6.057009
[MO833] Paramount Iteration,6,88,0.054439,6.056889
[MO833] Paramount Iteration,7,88,0.054474,6.056890
[MO833] Paramount Iteration,0,89,0.054490,6.111766
[MO833] Paramount Iteration,1,89,0.054533,6.111772
[MO833] Paramount Iteration,4,89,0.054534,6.111490
[MO833] Paramount Iteration,6,89,0.054425,6.111370
[MO833] Paramount Iteration,2,89,0.054458,6.111506
[MO833] Paramount Iteration,5,89,0.054499,6.111493
[MO833] Paramount Iteration,7,89,0.054460,6.111369
[MO833] Paramount Iteration,3,89,0.054490,6.111508
[MO833] Paramount Iteration,0,90,0.054049,6.165835
[MO833] Paramount Iteration,1,90,0.053928,6.165840
[MO833] Paramount Iteration,4,90,0.054048,6.165554
[MO833] Paramount Iteration,2,90,0.054032,6.165586
[MO833] Paramount Iteration,5,90,0.054015,6.165557
[MO833] Paramount Iteration,6,90,0.054061,6.165481
[MO833] Paramount Iteration,3,90,0.054071,6.165595
[MO833] Paramount Iteration,7,90,0.054096,6.165482
[MO833] Paramount Iteration,0,91,0.124457,6.290355
[MO833] Paramount Iteration,1,91,0.124500,6.290360
[MO833] Paramount Iteration,4,91,0.124445,6.290058
[MO833] Paramount Iteration,6,91,0.124422,6.289958
[MO833] Paramount Iteration,2,91,0.124465,6.290110
[MO833] Paramount Iteration,5,91,0.124485,6.290061
[MO833] Paramount Iteration,7,91,0.124453,6.289954
[MO833] Paramount Iteration,3,91,0.124500,6.290112
[MO833] Paramount Iteration,0,92,0.054177,6.344551
[MO833] Paramount Iteration,1,92,0.054060,6.344559
[MO833] Paramount Iteration,6,92,0.054154,6.344160
[MO833] Paramount Iteration,2,92,0.054125,6.344290
[MO833] Paramount Iteration,4,92,0.054149,6.344271
[MO833] Paramount Iteration,7,92,0.054187,6.344159
[MO833] Paramount Iteration,3,92,0.054162,6.344292
[MO833] Paramount Iteration,5,92,0.054189,6.344273
[MO833] Paramount Iteration,0,93,0.054135,6.398745
[MO833] Paramount Iteration,1,93,0.054176,6.398752
[MO833] Paramount Iteration,6,93,0.054110,6.398327
[MO833] Paramount Iteration,2,93,0.054108,6.398456
[MO833] Paramount Iteration,4,93,0.054131,6.398466
[MO833] Paramount Iteration,7,93,0.054145,6.398326
[MO833] Paramount Iteration,3,93,0.054142,6.398457
[MO833] Paramount Iteration,5,93,0.054172,6.398469
[MO833] Paramount Iteration,0,94,0.053939,6.452764
[MO833] Paramount Iteration,2,94,0.053957,6.452470
[MO833] Paramount Iteration,1,94,0.054003,6.452772
[MO833] Paramount Iteration,4,94,0.053948,6.452476
[MO833] Paramount Iteration,6,94,0.053974,6.452352
[MO833] Paramount Iteration,3,94,0.053995,6.452474
[MO833] Paramount Iteration,5,94,0.053989,6.452479
[MO833] Paramount Iteration,7,94,0.054008,6.452351
[MO833] Paramount Iteration,6,95,0.054412,6.506831
[MO833] Paramount Iteration,2,95,0.054426,6.506951
[MO833] Paramount Iteration,0,95,0.054405,6.507253
[MO833] Paramount Iteration,4,95,0.054458,6.506990
[MO833] Paramount Iteration,7,95,0.054445,6.506830
[MO833] Paramount Iteration,3,95,0.054465,6.506955
[MO833] Paramount Iteration,1,95,0.054474,6.507263
[MO833] Paramount Iteration,5,95,0.054497,6.506993
[MO833] Paramount Iteration,0,96,0.055142,6.562492
[MO833] Paramount Iteration,1,96,0.055222,6.562500
[MO833] Paramount Iteration,4,96,0.055166,6.562217
[MO833] Paramount Iteration,6,96,0.055206,6.562093
[MO833] Paramount Iteration,2,96,0.055201,6.562210
[MO833] Paramount Iteration,5,96,0.055208,6.562220
[MO833] Paramount Iteration,7,96,0.055241,6.562093
[MO833] Paramount Iteration,3,96,0.055243,6.562217
[MO833] Paramount Iteration,6,97,0.055134,6.617284
[MO833] Paramount Iteration,2,97,0.055163,6.617433
[MO833] Paramount Iteration,0,97,0.055239,6.617752
[MO833] Paramount Iteration,4,97,0.055140,6.617420
[MO833] Paramount Iteration,7,97,0.055170,6.617285
[MO833] Paramount Iteration,3,97,0.055199,6.617434
[MO833] Paramount Iteration,1,97,0.055152,6.617758
[MO833] Paramount Iteration,5,97,0.055186,6.617426
[MO833] Paramount Iteration,0,98,0.054410,6.672247
[MO833] Paramount Iteration,6,98,0.054454,6.671790
[MO833] Paramount Iteration,2,98,0.054449,6.671939
[MO833] Paramount Iteration,1,98,0.054471,6.672252
[MO833] Paramount Iteration,4,98,0.054440,6.671925
[MO833] Paramount Iteration,7,98,0.054488,6.671789
[MO833] Paramount Iteration,3,98,0.054485,6.671940
[MO833] Paramount Iteration,5,98,0.054485,6.671931
[MO833] Paramount Iteration,0,99,0.054705,6.726972
[MO833] Paramount Iteration,4,99,0.054661,6.726645
[MO833] Paramount Iteration,1,99,0.054571,6.726977
[MO833] Paramount Iteration,5,99,0.054703,6.726648
[MO833] Paramount Iteration,6,99,0.054704,6.726550
[MO833] Paramount Iteration,2,99,0.054712,6.726709
[MO833] Paramount Iteration,7,99,0.054731,6.726542
[MO833] Paramount Iteration,3,99,0.054745,6.726708
---------------- Step      100 ----- CPU =      6.2344 (sec) ----------------
TotEng   =    -25290.7302 KinEng   =     21591.9084 Temp     =       301.0906 
PotEng   =    -46882.6386 E_bond   =      2567.9807 E_angle  =     10781.9571 
E_dihed  =      5198.7492 E_impro  =       216.7864 E_vdwl   =     -1902.6618 
E_coul   =    206659.5227 E_long   =   -270404.9730 Press    =         6.7407 
Volume   =    308134.2285 
[MO833] Paramount Iteration,4,100,0.144098,6.870804
[MO833] Paramount Iteration,1,100,0.144026,6.871143
[MO833] Paramount Iteration,5,100,0.144140,6.870808
[MO833] Paramount Iteration,6,100,0.144100,6.870696
[MO833] Paramount Iteration,0,100,0.144223,6.871214
[MO833] Paramount Iteration,7,100,0.144129,6.870691
[MO833] Paramount Iteration,2,100,0.144114,6.870875
[MO833] Paramount Iteration,3,100,0.144149,6.870876
Loop time of 6.23484 on 8 procs for 100 steps with 32000 atoms

Performance: 2.772 ns/day, 8.659 hours/ns, 16.039 timesteps/s
95.1% CPU use with 8 MPI tasks x 1 OpenMP threads

MPI task timing breakdown:
Section |  min time  |  avg time  |  max time  |%varavg| %total
---------------------------------------------------------------
Pair    | 3.932      | 4.0448     | 4.188      |   4.5 | 64.87
Bond    | 0.15303    | 0.17116    | 0.19234    |   3.0 |  2.75
Kspace  | 0.62525    | 0.77383    | 0.89272    |  10.5 | 12.41
Neigh   | 0.73876    | 0.739      | 0.73936    |   0.0 | 11.85
Comm    | 0.16189    | 0.16628    | 0.16861    |   0.5 |  2.67
Output  | 0.0016179  | 0.0016774  | 0.0018432  |   0.2 |  0.03
Modify  | 0.31366    | 0.31682    | 0.32018    |   0.4 |  5.08
Other   |            | 0.02124    |            |       |  0.34

Nlocal:    4000 ave 4082 max 3940 min
Histogram: 2 1 0 1 2 0 0 0 1 1
Nghost:    16027.4 ave 16084 max 15942 min
Histogram: 1 0 0 2 0 1 0 1 1 2
Neighs:    1.50351e+06 ave 1.5498e+06 max 1.46314e+06 min
Histogram: 2 0 1 0 2 1 0 0 0 2

Total # of neighbors = 12028093
Ave neighs/atom = 375.878
Ave special neighs/atom = 7.43187
Neighbor list builds = 11
Dangerous builds = 0
Total wall time: 0:00:06
[MO833] Beta,0,0.105656
[MO833] PI avg,0,0.062350,100
[MO833] Total time,6.893747
[MO833] Beta,1,0.105690
[MO833] PI avg,1,0.062349,100
[MO833] Beta,4,0.105680
[MO833] Beta,3,0.105690
[MO833] PI avg,3,0.062347,100
[MO833] PI avg,4,0.062347,100
[MO833] Beta,7,0.105697
[MO833] PI avg,7,0.062346,100
[MO833] Beta,5,0.105745
[MO833] PI avg,5,0.062346,100
[MO833] Beta,6,0.105748
[MO833] PI avg,6,0.062345,100
[MO833] Beta,2,0.105750
[MO833] PI avg,2,0.062347,100
