LAMMPS (3 Mar 2020)
OMP_NUM_THREADS environment is not set. Defaulting to 1 thread. (src/comm.cpp:94)
  using 1 OpenMP thread(s) per MPI task
Reading data file ...
  orthogonal box = (-27.5 -38.5 -36.3646) to (27.5 38.5 36.3615)
  2 by 2 by 2 MPI processor grid
  reading atoms ...
  32000 atoms
  reading velocities ...
  32000 velocities
  scanning bonds ...
  4 = max bonds/atom
  scanning angles ...
  8 = max angles/atom
  scanning dihedrals ...
  18 = max dihedrals/atom
  scanning impropers ...
  2 = max impropers/atom
  reading bonds ...
  27723 bonds
  reading angles ...
  40467 angles
  reading dihedrals ...
  56829 dihedrals
  reading impropers ...
  1034 impropers
Finding 1-2 1-3 1-4 neighbors ...
  special bond factors lj:   0          0          0         
  special bond factors coul: 0          0          0         
  4 = max # of 1-2 neighbors
  12 = max # of 1-3 neighbors
  24 = max # of 1-4 neighbors
  26 = max # of special neighbors
  special bonds CPU = 0.0115988 secs
  read_data CPU = 0.382582 secs
Replicating atoms ...
  orthogonal box = (-27.5 -38.5 -36.3646) to (27.5 38.5 36.3615)
  2 by 2 by 2 MPI processor grid
  32000 atoms
  27723 bonds
  40467 angles
  56829 dihedrals
  1034 impropers
Finding 1-2 1-3 1-4 neighbors ...
  special bond factors lj:   0          0          0         
  special bond factors coul: 0          0          0         
  4 = max # of 1-2 neighbors
  12 = max # of 1-3 neighbors
  24 = max # of 1-4 neighbors
  26 = max # of special neighbors
  special bonds CPU = 0.00903702 secs
  replicate CPU = 0.0468366 secs
Finding SHAKE clusters ...
  1617 = # of size 2 clusters
  3633 = # of size 3 clusters
  747 = # of size 4 clusters
  4233 = # of frozen angles
  find clusters CPU = 0.00567722 secs
PPPM initialization ...
  using 12-bit tables for long-range coulomb (src/kspace.cpp:332)
  G vector (1/distance) = 0.248835
  grid = 25 32 32
  stencil order = 5
  estimated absolute RMS force accuracy = 0.0355478
  estimated relative force accuracy = 0.000107051
  using double precision KISS FFT
  3d grid and FFT values/proc = 7938 3328
Neighbor list info ...
  update every 1 steps, delay 5 steps, check yes
  max neighbors/atom: 2000, page size: 100000
  master list distance cutoff = 12
  ghost atom cutoff = 12
  binsize = 6, bins = 10 13 13
  1 neighbor lists, perpetual/occasional/extra = 1 0 0
  (1) pair lj/charmm/coul/long, perpetual
      attributes: half, newton on
      pair build: half/bin/newton
      stencil: half/bin/3d/newton
      bin: standard
Setting up Verlet run ...
  Unit style    : real
  Current step  : 0
  Time step     : 2
Per MPI rank memory allocation (min/avg/max) = 42.12 | 42.41 | 42.52 Mbytes
---------------- Step        0 ----- CPU =      0.0000 (sec) ----------------
TotEng   =    -25356.2064 KinEng   =     21444.8313 Temp     =       299.0397 
PotEng   =    -46801.0377 E_bond   =      2537.9940 E_angle  =     10921.3742 
E_dihed  =      5211.7865 E_impro  =       213.5116 E_vdwl   =     -2307.8634 
E_coul   =    207025.8927 E_long   =   -270403.7333 Press    =      -149.3301 
Volume   =    307995.0335 
[MO833] Paramount Iteration,0,1,0.052755,0.674471
[MO833] Paramount Iteration,1,1,0.052757,0.674473
[MO833] Paramount Iteration,2,1,0.052744,0.674449
[MO833] Paramount Iteration,4,1,0.052744,0.674457
[MO833] Paramount Iteration,3,1,0.052749,0.674466
[MO833] Paramount Iteration,5,1,0.052744,0.674459
[MO833] Paramount Iteration,6,1,0.052752,0.674226
[MO833] Paramount Iteration,7,1,0.052751,0.674196
[MO833] Paramount Iteration,0,2,0.053401,0.727973
[MO833] Paramount Iteration,4,2,0.053432,0.727913
[MO833] Paramount Iteration,2,2,0.053391,0.727909
[MO833] Paramount Iteration,6,2,0.053340,0.727637
[MO833] Paramount Iteration,1,2,0.053484,0.727973
[MO833] Paramount Iteration,5,2,0.053400,0.727919
[MO833] Paramount Iteration,3,2,0.053431,0.727918
[MO833] Paramount Iteration,7,2,0.053387,0.727612
[MO833] Paramount Iteration,0,3,0.053234,0.781228
[MO833] Paramount Iteration,2,3,0.053204,0.781174
[MO833] Paramount Iteration,6,3,0.053279,0.780937
[MO833] Paramount Iteration,1,3,0.053101,0.781230
[MO833] Paramount Iteration,4,3,0.053241,0.781216
[MO833] Paramount Iteration,3,3,0.053249,0.781185
[MO833] Paramount Iteration,7,3,0.053244,0.780908
[MO833] Paramount Iteration,5,3,0.053283,0.781218
[MO833] Paramount Iteration,4,4,0.053267,0.834544
[MO833] Paramount Iteration,2,4,0.053369,0.834563
[MO833] Paramount Iteration,6,4,0.053331,0.834286
[MO833] Paramount Iteration,0,4,0.053351,0.834598
[MO833] Paramount Iteration,5,4,0.053310,0.834547
[MO833] Paramount Iteration,3,4,0.053334,0.834572
[MO833] Paramount Iteration,7,4,0.053299,0.834260
[MO833] Paramount Iteration,1,4,0.053191,0.834597
[MO833] Paramount Iteration,4,5,0.053445,0.888007
[MO833] Paramount Iteration,2,5,0.053391,0.888014
[MO833] Paramount Iteration,6,5,0.053390,0.887738
[MO833] Paramount Iteration,0,5,0.053390,0.888069
[MO833] Paramount Iteration,5,5,0.053408,0.888015
[MO833] Paramount Iteration,3,5,0.053434,0.888024
[MO833] Paramount Iteration,7,5,0.053433,0.887711
[MO833] Paramount Iteration,1,5,0.053451,0.888069
[MO833] Paramount Iteration,0,6,0.052950,0.941098
[MO833] Paramount Iteration,2,6,0.052968,0.941040
[MO833] Paramount Iteration,6,6,0.053003,0.940804
[MO833] Paramount Iteration,1,6,0.053013,0.941101
[MO833] Paramount Iteration,4,6,0.053060,0.941088
[MO833] Paramount Iteration,3,6,0.053011,0.941052
[MO833] Paramount Iteration,7,6,0.053045,0.940775
[MO833] Paramount Iteration,5,6,0.053025,0.941089
[MO833] Paramount Iteration,4,7,0.052770,0.993878
[MO833] Paramount Iteration,2,7,0.052764,0.993862
[MO833] Paramount Iteration,6,7,0.052731,0.993594
[MO833] Paramount Iteration,5,7,0.052738,0.993882
[MO833] Paramount Iteration,3,7,0.052804,0.993872
[MO833] Paramount Iteration,7,7,0.052774,0.993568
[MO833] Paramount Iteration,0,7,0.052814,0.993932
[MO833] Paramount Iteration,1,7,0.052693,0.993950
[MO833] Paramount Iteration,4,8,0.053073,1.047014
[MO833] Paramount Iteration,2,8,0.053131,1.047013
[MO833] Paramount Iteration,6,8,0.053093,1.046745
[MO833] Paramount Iteration,0,8,0.053110,1.047079
[MO833] Paramount Iteration,5,8,0.053121,1.047020
[MO833] Paramount Iteration,3,8,0.053097,1.047022
[MO833] Paramount Iteration,7,8,0.053133,1.046717
[MO833] Paramount Iteration,1,8,0.052961,1.047079
[MO833] Paramount Iteration,0,9,0.052409,1.099568
[MO833] Paramount Iteration,1,9,0.052475,1.099573
[MO833] Paramount Iteration,2,9,0.052516,1.099547
[MO833] Paramount Iteration,4,9,0.052487,1.099560
[MO833] Paramount Iteration,3,9,0.052490,1.099564
[MO833] Paramount Iteration,6,9,0.052509,1.099316
[MO833] Paramount Iteration,5,9,0.052527,1.099561
[MO833] Paramount Iteration,7,9,0.052554,1.099289
[MO833] Paramount Iteration,0,10,0.121969,1.221593
[MO833] Paramount Iteration,4,10,0.121912,1.221530
[MO833] Paramount Iteration,2,10,0.121907,1.221515
[MO833] Paramount Iteration,6,10,0.121874,1.221252
[MO833] Paramount Iteration,1,10,0.122011,1.221595
[MO833] Paramount Iteration,5,10,0.121959,1.221538
[MO833] Paramount Iteration,3,10,0.121947,1.221524
[MO833] Paramount Iteration,7,10,0.121919,1.221225
[MO833] Paramount Iteration,0,11,0.053494,1.275252
[MO833] Paramount Iteration,4,11,0.053658,1.275206
[MO833] Paramount Iteration,1,11,0.053642,1.275252
[MO833] Paramount Iteration,5,11,0.053626,1.275208
[MO833] Paramount Iteration,2,11,0.053660,1.275234
[MO833] Paramount Iteration,6,11,0.053682,1.274954
[MO833] Paramount Iteration,3,11,0.053702,1.275243
[MO833] Paramount Iteration,7,11,0.053648,1.274927
[MO833] Paramount Iteration,4,12,0.053748,1.328971
[MO833] Paramount Iteration,2,12,0.053721,1.328975
[MO833] Paramount Iteration,6,12,0.053692,1.328707
[MO833] Paramount Iteration,0,12,0.053775,1.329045
[MO833] Paramount Iteration,5,12,0.053723,1.328979
[MO833] Paramount Iteration,3,12,0.053684,1.328984
[MO833] Paramount Iteration,7,12,0.053736,1.328681
[MO833] Paramount Iteration,1,12,0.053735,1.329045
[MO833] Paramount Iteration,4,13,0.054239,1.383271
[MO833] Paramount Iteration,6,13,0.054257,1.382985
[MO833] Paramount Iteration,1,13,0.054246,1.383352
[MO833] Paramount Iteration,5,13,0.054288,1.383280
[MO833] Paramount Iteration,2,13,0.054234,1.383270
[MO833] Paramount Iteration,7,13,0.054224,1.382958
[MO833] Paramount Iteration,3,13,0.054276,1.383279
[MO833] Paramount Iteration,0,13,0.054289,1.383352
[MO833] Paramount Iteration,0,14,0.053894,1.437395
[MO833] Paramount Iteration,4,14,0.053992,1.437326
[MO833] Paramount Iteration,2,14,0.054038,1.437328
[MO833] Paramount Iteration,6,14,0.054006,1.437055
[MO833] Paramount Iteration,1,14,0.053982,1.437395
[MO833] Paramount Iteration,5,14,0.054038,1.437331
[MO833] Paramount Iteration,3,14,0.054002,1.437337
[MO833] Paramount Iteration,7,14,0.054051,1.437028
[MO833] Paramount Iteration,6,15,0.054038,1.491157
[MO833] Paramount Iteration,1,15,0.054052,1.491519
[MO833] Paramount Iteration,4,15,0.054044,1.491445
[MO833] Paramount Iteration,2,15,0.054097,1.491443
[MO833] Paramount Iteration,7,15,0.054087,1.491133
[MO833] Paramount Iteration,5,15,0.054101,1.491451
[MO833] Paramount Iteration,3,15,0.054062,1.491452
[MO833] Paramount Iteration,0,15,0.054103,1.491520
[MO833] Paramount Iteration,0,16,0.054188,1.545851
[MO833] Paramount Iteration,4,16,0.054305,1.545816
[MO833] Paramount Iteration,2,16,0.054315,1.545776
[MO833] Paramount Iteration,6,16,0.054311,1.545532
[MO833] Paramount Iteration,1,16,0.054350,1.545934
[MO833] Paramount Iteration,5,16,0.054348,1.545817
[MO833] Paramount Iteration,3,16,0.054282,1.545787
[MO833] Paramount Iteration,7,16,0.054352,1.545502
[MO833] Paramount Iteration,0,17,0.054475,1.600349
[MO833] Paramount Iteration,1,17,0.054398,1.600351
[MO833] Paramount Iteration,4,17,0.054443,1.600321
[MO833] Paramount Iteration,2,17,0.054510,1.600305
[MO833] Paramount Iteration,6,17,0.054472,1.600065
[MO833] Paramount Iteration,5,17,0.054484,1.600322
[MO833] Paramount Iteration,3,17,0.054479,1.600318
[MO833] Paramount Iteration,7,17,0.054514,1.600036
[MO833] Paramount Iteration,0,18,0.123946,1.724315
[MO833] Paramount Iteration,1,18,0.123905,1.724317
[MO833] Paramount Iteration,4,18,0.123904,1.724282
[MO833] Paramount Iteration,2,18,0.123957,1.724284
[MO833] Paramount Iteration,5,18,0.123938,1.724283
[MO833] Paramount Iteration,3,18,0.123926,1.724295
[MO833] Paramount Iteration,6,18,0.123917,1.724046
[MO833] Paramount Iteration,7,18,0.123960,1.724018
[MO833] Paramount Iteration,0,19,0.054555,1.778889
[MO833] Paramount Iteration,1,19,0.054514,1.778890
[MO833] Paramount Iteration,4,19,0.054504,1.778850
[MO833] Paramount Iteration,2,19,0.054534,1.778840
[MO833] Paramount Iteration,6,19,0.054492,1.778602
[MO833] Paramount Iteration,5,19,0.054546,1.778852
[MO833] Paramount Iteration,3,19,0.054507,1.778856
[MO833] Paramount Iteration,7,19,0.054537,1.778574
[MO833] Paramount Iteration,0,20,0.054717,1.833625
[MO833] Paramount Iteration,4,20,0.054646,1.833554
[MO833] Paramount Iteration,6,20,0.054629,1.833299
[MO833] Paramount Iteration,1,20,0.054676,1.833625
[MO833] Paramount Iteration,5,20,0.054690,1.833559
[MO833] Paramount Iteration,2,20,0.054710,1.833572
[MO833] Paramount Iteration,7,20,0.054675,1.833272
[MO833] Paramount Iteration,3,20,0.054674,1.833581
[MO833] Paramount Iteration,0,21,0.053667,1.887317
[MO833] Paramount Iteration,1,21,0.053633,1.887321
[MO833] Paramount Iteration,4,21,0.053661,1.887276
[MO833] Paramount Iteration,2,21,0.053677,1.887269
[MO833] Paramount Iteration,6,21,0.053666,1.887028
[MO833] Paramount Iteration,5,21,0.053704,1.887277
[MO833] Paramount Iteration,3,21,0.053648,1.887284
[MO833] Paramount Iteration,7,21,0.053711,1.887001
[MO833] Paramount Iteration,0,22,0.053666,1.941006
[MO833] Paramount Iteration,4,22,0.053595,1.940932
[MO833] Paramount Iteration,2,22,0.053631,1.940921
[MO833] Paramount Iteration,6,22,0.053555,1.940648
[MO833] Paramount Iteration,1,22,0.053624,1.941006
[MO833] Paramount Iteration,5,22,0.053634,1.940933
[MO833] Paramount Iteration,3,22,0.053595,1.940930
[MO833] Paramount Iteration,7,22,0.053602,1.940624
[MO833] Paramount Iteration,0,23,0.054610,1.995635
[MO833] Paramount Iteration,4,23,0.054603,1.995598
[MO833] Paramount Iteration,2,23,0.054640,1.995582
[MO833] Paramount Iteration,6,23,0.054612,1.995327
[MO833] Paramount Iteration,1,23,0.054570,1.995650
[MO833] Paramount Iteration,5,23,0.054644,1.995599
[MO833] Paramount Iteration,3,23,0.054604,1.995591
[MO833] Paramount Iteration,7,23,0.054658,1.995299
[MO833] Paramount Iteration,0,24,0.054095,2.049765
[MO833] Paramount Iteration,1,24,0.054020,2.049765
[MO833] Paramount Iteration,4,24,0.054065,2.049725
[MO833] Paramount Iteration,2,24,0.054118,2.049724
[MO833] Paramount Iteration,6,24,0.054065,2.049446
[MO833] Paramount Iteration,5,24,0.054106,2.049726
[MO833] Paramount Iteration,3,24,0.054084,2.049735
[MO833] Paramount Iteration,7,24,0.054101,2.049419
[MO833] Paramount Iteration,0,25,0.054139,2.103924
[MO833] Paramount Iteration,1,25,0.054089,2.103926
[MO833] Paramount Iteration,4,25,0.054098,2.103886
[MO833] Paramount Iteration,2,25,0.054113,2.103859
[MO833] Paramount Iteration,6,25,0.054110,2.103617
[MO833] Paramount Iteration,5,25,0.054140,2.103887
[MO833] Paramount Iteration,3,25,0.054085,2.103874
[MO833] Paramount Iteration,7,25,0.054154,2.103589
[MO833] Paramount Iteration,4,26,0.125101,2.229045
[MO833] Paramount Iteration,2,26,0.125160,2.229037
[MO833] Paramount Iteration,6,26,0.125077,2.228754
[MO833] Paramount Iteration,0,26,0.125187,2.229130
[MO833] Paramount Iteration,5,26,0.125148,2.229052
[MO833] Paramount Iteration,3,26,0.125127,2.229046
[MO833] Paramount Iteration,7,26,0.125120,2.228727
[MO833] Paramount Iteration,1,26,0.125147,2.229132
[MO833] Paramount Iteration,4,27,0.054811,2.283919
[MO833] Paramount Iteration,2,27,0.054847,2.283907
[MO833] Paramount Iteration,6,27,0.054796,2.283619
[MO833] Paramount Iteration,0,27,0.054857,2.284010
[MO833] Paramount Iteration,5,27,0.054860,2.283928
[MO833] Paramount Iteration,3,27,0.054811,2.283916
[MO833] Paramount Iteration,7,27,0.054841,2.283592
[MO833] Paramount Iteration,1,27,0.054808,2.284012
[MO833] Paramount Iteration,0,28,0.054453,2.338607
[MO833] Paramount Iteration,1,28,0.054524,2.338607
[MO833] Paramount Iteration,4,28,0.054581,2.338562
[MO833] Paramount Iteration,5,28,0.054622,2.338563
[MO833] Paramount Iteration,2,28,0.054637,2.338563
[MO833] Paramount Iteration,3,28,0.054606,2.338575
[MO833] Paramount Iteration,6,28,0.054634,2.338319
[MO833] Paramount Iteration,7,28,0.054676,2.338290
[MO833] Paramount Iteration,2,29,0.054782,2.393367
[MO833] Paramount Iteration,6,29,0.054698,2.393085
[MO833] Paramount Iteration,0,29,0.054844,2.393470
[MO833] Paramount Iteration,4,29,0.054772,2.393386
[MO833] Paramount Iteration,3,29,0.054747,2.393376
[MO833] Paramount Iteration,7,29,0.054744,2.393059
[MO833] Paramount Iteration,1,29,0.054803,2.393470
[MO833] Paramount Iteration,5,29,0.054807,2.393390
[MO833] Paramount Iteration,4,30,0.054697,2.448160
[MO833] Paramount Iteration,2,30,0.054762,2.448152
[MO833] Paramount Iteration,0,30,0.054766,2.448255
[MO833] Paramount Iteration,5,30,0.054760,2.448165
[MO833] Paramount Iteration,3,30,0.054726,2.448161
[MO833] Paramount Iteration,6,30,0.054708,2.447859
[MO833] Paramount Iteration,1,30,0.054714,2.448255
[MO833] Paramount Iteration,7,30,0.054751,2.447830
[MO833] Paramount Iteration,0,31,0.054105,2.502378
[MO833] Paramount Iteration,1,31,0.054056,2.502378
[MO833] Paramount Iteration,4,31,0.054105,2.502323
[MO833] Paramount Iteration,2,31,0.054140,2.502311
[MO833] Paramount Iteration,6,31,0.054077,2.502065
[MO833] Paramount Iteration,5,31,0.054145,2.502324
[MO833] Paramount Iteration,3,31,0.054113,2.502327
[MO833] Paramount Iteration,7,31,0.054137,2.502036
[MO833] Paramount Iteration,0,32,0.054520,2.556915
[MO833] Paramount Iteration,1,32,0.054481,2.556917
[MO833] Paramount Iteration,4,32,0.054499,2.556872
[MO833] Paramount Iteration,2,32,0.054485,2.556820
[MO833] Paramount Iteration,6,32,0.054443,2.556570
[MO833] Paramount Iteration,5,32,0.054532,2.556873
[MO833] Paramount Iteration,3,32,0.054456,2.556835
[MO833] Paramount Iteration,7,32,0.054485,2.556541
[MO833] Paramount Iteration,2,33,0.054082,2.610926
[MO833] Paramount Iteration,6,33,0.054044,2.610681
[MO833] Paramount Iteration,0,33,0.054103,2.611038
[MO833] Paramount Iteration,4,33,0.054062,2.610994
[MO833] Paramount Iteration,3,33,0.054050,2.610939
[MO833] Paramount Iteration,7,33,0.054088,2.610653
[MO833] Paramount Iteration,1,33,0.054052,2.611044
[MO833] Paramount Iteration,5,33,0.054104,2.610995
[MO833] Paramount Iteration,2,34,0.054316,2.665262
[MO833] Paramount Iteration,6,34,0.054265,2.665008
[MO833] Paramount Iteration,0,34,0.054317,2.665378
[MO833] Paramount Iteration,4,34,0.054272,2.665324
[MO833] Paramount Iteration,3,34,0.054287,2.665277
[MO833] Paramount Iteration,7,34,0.054307,2.664978
[MO833] Paramount Iteration,1,34,0.054248,2.665385
[MO833] Paramount Iteration,5,34,0.054310,2.665325
[MO833] Paramount Iteration,0,35,0.054224,2.719625
[MO833] Paramount Iteration,1,35,0.054173,2.719630
[MO833] Paramount Iteration,4,35,0.054185,2.719577
[MO833] Paramount Iteration,2,35,0.054251,2.719533
[MO833] Paramount Iteration,6,35,0.054210,2.719279
[MO833] Paramount Iteration,5,35,0.054236,2.719578
[MO833] Paramount Iteration,3,35,0.054218,2.719544
[MO833] Paramount Iteration,7,35,0.054253,2.719250
[MO833] Paramount Iteration,0,36,0.124232,2.843876
[MO833] Paramount Iteration,4,36,0.124140,2.843779
[MO833] Paramount Iteration,2,36,0.124218,2.843771
[MO833] Paramount Iteration,6,36,0.124137,2.843477
[MO833] Paramount Iteration,1,36,0.124184,2.843876
[MO833] Paramount Iteration,5,36,0.124184,2.843783
[MO833] Paramount Iteration,3,36,0.124184,2.843781
[MO833] Paramount Iteration,7,36,0.124181,2.843450
[MO833] Paramount Iteration,0,37,0.054005,2.897902
[MO833] Paramount Iteration,4,37,0.053977,2.897818
[MO833] Paramount Iteration,2,37,0.054018,2.897807
[MO833] Paramount Iteration,6,37,0.053976,2.897514
[MO833] Paramount Iteration,1,37,0.053954,2.897902
[MO833] Paramount Iteration,5,37,0.054020,2.897819
[MO833] Paramount Iteration,3,37,0.053985,2.897816
[MO833] Paramount Iteration,7,37,0.054021,2.897488
[MO833] Paramount Iteration,4,38,0.054237,2.952118
[MO833] Paramount Iteration,2,38,0.054282,2.952106
[MO833] Paramount Iteration,6,38,0.054241,2.951818
[MO833] Paramount Iteration,0,38,0.054304,2.952227
[MO833] Paramount Iteration,5,38,0.054291,2.952131
[MO833] Paramount Iteration,3,38,0.054245,2.952115
[MO833] Paramount Iteration,7,38,0.054282,2.951790
[MO833] Paramount Iteration,1,38,0.054267,2.952227
[MO833] Paramount Iteration,0,39,0.054832,3.007077
[MO833] Paramount Iteration,4,39,0.054792,3.006970
[MO833] Paramount Iteration,2,39,0.054840,3.006968
[MO833] Paramount Iteration,6,39,0.054794,3.006676
[MO833] Paramount Iteration,1,39,0.054781,3.007077
[MO833] Paramount Iteration,5,39,0.054840,3.006979
[MO833] Paramount Iteration,3,39,0.054807,3.006978
[MO833] Paramount Iteration,7,39,0.054839,3.006649
[MO833] Paramount Iteration,6,40,0.054205,3.060942
[MO833] Paramount Iteration,0,40,0.054258,3.061358
[MO833] Paramount Iteration,4,40,0.054219,3.061250
[MO833] Paramount Iteration,2,40,0.054247,3.061235
[MO833] Paramount Iteration,7,40,0.054250,3.060916
[MO833] Paramount Iteration,1,40,0.054203,3.061357
[MO833] Paramount Iteration,5,40,0.054265,3.061257
[MO833] Paramount Iteration,3,40,0.054213,3.061245
[MO833] Paramount Iteration,0,41,0.054826,3.116328
[MO833] Paramount Iteration,1,41,0.054899,3.116327
[MO833] Paramount Iteration,4,41,0.054931,3.116241
[MO833] Paramount Iteration,2,41,0.054993,3.116252
[MO833] Paramount Iteration,6,41,0.054966,3.115970
[MO833] Paramount Iteration,5,41,0.054974,3.116243
[MO833] Paramount Iteration,3,41,0.054956,3.116261
[MO833] Paramount Iteration,7,41,0.055012,3.115944
[MO833] Paramount Iteration,0,42,0.054520,3.170867
[MO833] Paramount Iteration,1,42,0.054477,3.170867
[MO833] Paramount Iteration,4,42,0.054494,3.170799
[MO833] Paramount Iteration,2,42,0.054516,3.170788
[MO833] Paramount Iteration,6,42,0.054497,3.170534
[MO833] Paramount Iteration,5,42,0.054537,3.170801
[MO833] Paramount Iteration,3,42,0.054485,3.170801
[MO833] Paramount Iteration,7,42,0.054540,3.170505
[MO833] Paramount Iteration,0,43,0.054389,3.225432
[MO833] Paramount Iteration,4,43,0.054466,3.225323
[MO833] Paramount Iteration,2,43,0.054506,3.225311
[MO833] Paramount Iteration,6,43,0.054415,3.225013
[MO833] Paramount Iteration,1,43,0.054548,3.225434
[MO833] Paramount Iteration,5,43,0.054512,3.225331
[MO833] Paramount Iteration,3,43,0.054471,3.225320
[MO833] Paramount Iteration,7,43,0.054459,3.224987
[MO833] Paramount Iteration,4,44,0.054549,3.279945
[MO833] Paramount Iteration,2,44,0.054594,3.279927
[MO833] Paramount Iteration,6,44,0.054576,3.279650
[MO833] Paramount Iteration,0,44,0.054449,3.280063
[MO833] Paramount Iteration,5,44,0.054609,3.279953
[MO833] Paramount Iteration,3,44,0.054612,3.279989
[MO833] Paramount Iteration,7,44,0.054617,3.279620
[MO833] Paramount Iteration,1,44,0.054614,3.280063
[MO833] Paramount Iteration,0,45,0.125465,3.405600
[MO833] Paramount Iteration,1,45,0.125519,3.405600
[MO833] Paramount Iteration,4,45,0.125527,3.405532
[MO833] Paramount Iteration,2,45,0.125577,3.405527
[MO833] Paramount Iteration,6,45,0.125523,3.405237
[MO833] Paramount Iteration,5,45,0.125568,3.405533
[MO833] Paramount Iteration,3,45,0.125525,3.405536
[MO833] Paramount Iteration,7,45,0.125568,3.405210
[MO833] Paramount Iteration,4,46,0.054793,3.460378
[MO833] Paramount Iteration,2,46,0.054823,3.460367
[MO833] Paramount Iteration,6,46,0.054767,3.460071
[MO833] Paramount Iteration,0,46,0.054788,3.460493
[MO833] Paramount Iteration,5,46,0.054832,3.460385
[MO833] Paramount Iteration,3,46,0.054788,3.460376
[MO833] Paramount Iteration,7,46,0.054812,3.460044
[MO833] Paramount Iteration,1,46,0.054874,3.460494
[MO833] Paramount Iteration,0,47,0.054448,3.514962
[MO833] Paramount Iteration,2,47,0.054448,3.514834
[MO833] Paramount Iteration,6,47,0.054424,3.514563
[MO833] Paramount Iteration,1,47,0.054398,3.514966
[MO833] Paramount Iteration,4,47,0.054452,3.514893
[MO833] Paramount Iteration,3,47,0.054416,3.514845
[MO833] Paramount Iteration,7,47,0.054469,3.514535
[MO833] Paramount Iteration,5,47,0.054494,3.514894
[MO833] Paramount Iteration,0,48,0.054345,3.569481
[MO833] Paramount Iteration,1,48,0.054502,3.569483
[MO833] Paramount Iteration,4,48,0.054456,3.569409
[MO833] Paramount Iteration,2,48,0.054543,3.569395
[MO833] Paramount Iteration,5,48,0.054496,3.569410
[MO833] Paramount Iteration,3,48,0.054512,3.569407
[MO833] Paramount Iteration,6,48,0.054515,3.569139
[MO833] Paramount Iteration,7,48,0.054556,3.569109
[MO833] Paramount Iteration,0,49,0.054121,3.623621
[MO833] Paramount Iteration,1,49,0.054082,3.623623
[MO833] Paramount Iteration,4,49,0.054075,3.623544
[MO833] Paramount Iteration,2,49,0.054102,3.623520
[MO833] Paramount Iteration,6,49,0.054039,3.623241
[MO833] Paramount Iteration,5,49,0.054116,3.623545
[MO833] Paramount Iteration,3,49,0.054068,3.623530
[MO833] Paramount Iteration,7,49,0.054081,3.623213
---------------- Step       50 ----- CPU =      3.0746 (sec) ----------------
TotEng   =    -25330.0317 KinEng   =     21501.0005 Temp     =       299.8229 
PotEng   =    -46831.0321 E_bond   =      2471.7035 E_angle  =     10836.5102 
E_dihed  =      5239.6319 E_impro  =       227.1218 E_vdwl   =     -1993.2873 
E_coul   =    206797.6802 E_long   =   -270410.3926 Press    =       237.6571 
Volume   =    308031.6762 
[MO833] Paramount Iteration,4,50,0.073029,3.696634
[MO833] Paramount Iteration,2,50,0.073081,3.696620
[MO833] Paramount Iteration,1,50,0.073055,3.696736
[MO833] Paramount Iteration,5,50,0.073071,3.696635
[MO833] Paramount Iteration,3,50,0.073053,3.696636
[MO833] Paramount Iteration,6,50,0.073058,3.696364
[MO833] Paramount Iteration,7,50,0.073105,3.696339
[MO833] Paramount Iteration,0,50,0.073267,3.696907
[MO833] Paramount Iteration,0,51,0.054469,3.751409
[MO833] Paramount Iteration,1,51,0.054664,3.751409
[MO833] Paramount Iteration,4,51,0.054636,3.751325
[MO833] Paramount Iteration,2,51,0.054670,3.751307
[MO833] Paramount Iteration,6,51,0.054626,3.751048
[MO833] Paramount Iteration,5,51,0.054677,3.751326
[MO833] Paramount Iteration,3,51,0.054638,3.751319
[MO833] Paramount Iteration,7,51,0.054670,3.751019
[MO833] Paramount Iteration,0,52,0.054335,3.805920
[MO833] Paramount Iteration,2,52,0.054468,3.805794
[MO833] Paramount Iteration,1,52,0.054495,3.805923
[MO833] Paramount Iteration,4,52,0.054451,3.805838
[MO833] Paramount Iteration,3,52,0.054435,3.805805
[MO833] Paramount Iteration,6,52,0.054412,3.805524
[MO833] Paramount Iteration,5,52,0.054490,3.805839
[MO833] Paramount Iteration,7,52,0.054455,3.805495
[MO833] Paramount Iteration,4,53,0.055501,3.861400
[MO833] Paramount Iteration,2,53,0.055565,3.861377
[MO833] Paramount Iteration,6,53,0.055487,3.861075
[MO833] Paramount Iteration,1,53,0.055594,3.861532
[MO833] Paramount Iteration,5,53,0.055548,3.861408
[MO833] Paramount Iteration,3,53,0.055532,3.861387
[MO833] Paramount Iteration,7,53,0.055531,3.861046
[MO833] Paramount Iteration,0,53,0.055423,3.861532
[MO833] Paramount Iteration,0,54,0.125338,3.987037
[MO833] Paramount Iteration,1,54,0.125442,3.987038
[MO833] Paramount Iteration,4,54,0.125493,3.986951
[MO833] Paramount Iteration,2,54,0.125524,3.986922
[MO833] Paramount Iteration,6,54,0.125523,3.986658
[MO833] Paramount Iteration,5,54,0.125532,3.986952
[MO833] Paramount Iteration,3,54,0.125494,3.986937
[MO833] Paramount Iteration,7,54,0.125568,3.986632
[MO833] Paramount Iteration,0,55,0.054963,4.042020
[MO833] Paramount Iteration,4,55,0.054893,4.041898
[MO833] Paramount Iteration,2,55,0.054931,4.041872
[MO833] Paramount Iteration,6,55,0.054849,4.041569
[MO833] Paramount Iteration,1,55,0.054922,4.042020
[MO833] Paramount Iteration,5,55,0.054929,4.041902
[MO833] Paramount Iteration,3,55,0.054895,4.041881
[MO833] Paramount Iteration,7,55,0.054890,4.041541
[MO833] Paramount Iteration,4,56,0.054818,4.096774
[MO833] Paramount Iteration,2,56,0.054845,4.096740
[MO833] Paramount Iteration,6,56,0.054804,4.096438
[MO833] Paramount Iteration,1,56,0.054862,4.096900
[MO833] Paramount Iteration,5,56,0.054862,4.096778
[MO833] Paramount Iteration,3,56,0.054811,4.096749
[MO833] Paramount Iteration,7,56,0.054848,4.096411
[MO833] Paramount Iteration,0,56,0.054705,4.096900
[MO833] Paramount Iteration,0,57,0.054632,4.151691
[MO833] Paramount Iteration,4,57,0.054725,4.151556
[MO833] Paramount Iteration,2,57,0.054775,4.151535
[MO833] Paramount Iteration,6,57,0.054730,4.151228
[MO833] Paramount Iteration,1,57,0.054723,4.151691
[MO833] Paramount Iteration,5,57,0.054770,4.151563
[MO833] Paramount Iteration,3,57,0.054741,4.151544
[MO833] Paramount Iteration,7,57,0.054777,4.151203
[MO833] Paramount Iteration,0,58,0.054574,4.206439
[MO833] Paramount Iteration,1,58,0.054729,4.206441
[MO833] Paramount Iteration,4,58,0.054728,4.206346
[MO833] Paramount Iteration,2,58,0.054765,4.206322
[MO833] Paramount Iteration,6,58,0.054760,4.206057
[MO833] Paramount Iteration,5,58,0.054768,4.206347
[MO833] Paramount Iteration,3,58,0.054738,4.206338
[MO833] Paramount Iteration,7,58,0.054805,4.206030
[MO833] Paramount Iteration,0,59,0.054835,4.261295
[MO833] Paramount Iteration,4,59,0.054790,4.261193
[MO833] Paramount Iteration,2,59,0.054816,4.261161
[MO833] Paramount Iteration,6,59,0.054748,4.260865
[MO833] Paramount Iteration,1,59,0.054796,4.261297
[MO833] Paramount Iteration,5,59,0.054830,4.261194
[MO833] Paramount Iteration,3,59,0.054782,4.261170
[MO833] Paramount Iteration,7,59,0.054790,4.260837
[MO833] Paramount Iteration,0,60,0.054950,4.316416
[MO833] Paramount Iteration,4,60,0.055048,4.316304
[MO833] Paramount Iteration,2,60,0.055089,4.316266
[MO833] Paramount Iteration,6,60,0.055043,4.315968
[MO833] Paramount Iteration,1,60,0.055102,4.316416
[MO833] Paramount Iteration,5,60,0.055089,4.316305
[MO833] Paramount Iteration,3,60,0.055054,4.316275
[MO833] Paramount Iteration,7,60,0.055086,4.315941
[MO833] Paramount Iteration,0,61,0.055194,4.371629
[MO833] Paramount Iteration,4,61,0.055133,4.371494
[MO833] Paramount Iteration,2,61,0.055196,4.371483
[MO833] Paramount Iteration,6,61,0.055139,4.371169
[MO833] Paramount Iteration,1,61,0.055142,4.371631
[MO833] Paramount Iteration,5,61,0.055176,4.371498
[MO833] Paramount Iteration,3,61,0.055163,4.371492
[MO833] Paramount Iteration,7,61,0.055182,4.371140
[MO833] Paramount Iteration,0,62,0.055382,4.427185
[MO833] Paramount Iteration,2,62,0.055523,4.427028
[MO833] Paramount Iteration,6,62,0.055523,4.426753
[MO833] Paramount Iteration,1,62,0.055544,4.427191
[MO833] Paramount Iteration,4,62,0.055542,4.427096
[MO833] Paramount Iteration,3,62,0.055493,4.427041
[MO833] Paramount Iteration,7,62,0.055565,4.426724
[MO833] Paramount Iteration,5,62,0.055583,4.427098
[MO833] Paramount Iteration,0,63,0.054525,4.481889
[MO833] Paramount Iteration,1,63,0.054687,4.481890
[MO833] Paramount Iteration,4,63,0.054635,4.481790
[MO833] Paramount Iteration,2,63,0.054729,4.481777
[MO833] Paramount Iteration,5,63,0.054675,4.481791
[MO833] Paramount Iteration,3,63,0.054697,4.481789
[MO833] Paramount Iteration,6,63,0.054692,4.481509
[MO833] Paramount Iteration,7,63,0.054734,4.481480
[MO833] Paramount Iteration,0,64,0.125663,4.607725
[MO833] Paramount Iteration,2,64,0.125774,4.607571
[MO833] Paramount Iteration,6,64,0.125722,4.607292
[MO833] Paramount Iteration,1,64,0.125840,4.607745
[MO833] Paramount Iteration,4,64,0.125784,4.607635
[MO833] Paramount Iteration,3,64,0.125741,4.607583
[MO833] Paramount Iteration,7,64,0.125764,4.607263
[MO833] Paramount Iteration,5,64,0.125822,4.607634
[MO833] Paramount Iteration,0,65,0.055630,4.663525
[MO833] Paramount Iteration,2,65,0.055768,4.663359
[MO833] Paramount Iteration,1,65,0.055775,4.663526
[MO833] Paramount Iteration,4,65,0.055733,4.663430
[MO833] Paramount Iteration,3,65,0.055742,4.663376
[MO833] Paramount Iteration,6,65,0.055778,4.663091
[MO833] Paramount Iteration,5,65,0.055771,4.663430
[MO833] Paramount Iteration,7,65,0.055743,4.663062
[MO833] Paramount Iteration,0,66,0.055296,4.718840
[MO833] Paramount Iteration,4,66,0.055200,4.718695
[MO833] Paramount Iteration,2,66,0.055290,4.718671
[MO833] Paramount Iteration,6,66,0.055246,4.718359
[MO833] Paramount Iteration,1,66,0.055242,4.718841
[MO833] Paramount Iteration,5,66,0.055249,4.718702
[MO833] Paramount Iteration,3,66,0.055250,4.718681
[MO833] Paramount Iteration,7,66,0.055214,4.718333
[MO833] Paramount Iteration,0,67,0.054939,4.773952
[MO833] Paramount Iteration,4,67,0.055052,4.773811
[MO833] Paramount Iteration,6,67,0.055125,4.773506
[MO833] Paramount Iteration,1,67,0.055087,4.773951
[MO833] Paramount Iteration,5,67,0.055096,4.773815
[MO833] Paramount Iteration,2,67,0.055134,4.773826
[MO833] Paramount Iteration,7,67,0.055098,4.773484
[MO833] Paramount Iteration,3,67,0.055103,4.773838
[MO833] Paramount Iteration,0,68,0.054491,4.828461
[MO833] Paramount Iteration,1,68,0.054451,4.828461
[MO833] Paramount Iteration,4,68,0.054479,4.828349
[MO833] Paramount Iteration,2,68,0.054491,4.828336
[MO833] Paramount Iteration,6,68,0.054533,4.828061
[MO833] Paramount Iteration,5,68,0.054520,4.828350
[MO833] Paramount Iteration,3,68,0.054461,4.828351
[MO833] Paramount Iteration,7,68,0.054503,4.828034
[MO833] Paramount Iteration,0,69,0.054851,4.883332
[MO833] Paramount Iteration,4,69,0.054786,4.883196
[MO833] Paramount Iteration,6,69,0.054812,4.882890
[MO833] Paramount Iteration,1,69,0.054808,4.883332
[MO833] Paramount Iteration,5,69,0.054826,4.883197
[MO833] Paramount Iteration,7,69,0.054778,4.882863
[MO833] Paramount Iteration,2,69,0.054856,4.883211
[MO833] Paramount Iteration,3,69,0.054827,4.883223
[MO833] Paramount Iteration,0,70,0.054999,4.938496
[MO833] Paramount Iteration,1,70,0.055147,4.938497
[MO833] Paramount Iteration,4,70,0.055130,4.938390
[MO833] Paramount Iteration,2,70,0.055096,4.938338
[MO833] Paramount Iteration,6,70,0.055149,4.938060
[MO833] Paramount Iteration,5,70,0.055173,4.938392
[MO833] Paramount Iteration,3,70,0.055043,4.938349
[MO833] Paramount Iteration,7,70,0.055115,4.938031
[MO833] Paramount Iteration,0,71,0.054680,4.993341
[MO833] Paramount Iteration,4,71,0.054748,4.993199
[MO833] Paramount Iteration,6,71,0.054811,4.992893
[MO833] Paramount Iteration,1,71,0.054830,4.993341
[MO833] Paramount Iteration,5,71,0.054787,4.993200
[MO833] Paramount Iteration,2,71,0.054855,4.993216
[MO833] Paramount Iteration,7,71,0.054780,4.992866
[MO833] Paramount Iteration,3,71,0.054818,4.993225
[MO833] Paramount Iteration,0,72,0.054794,5.048154
[MO833] Paramount Iteration,1,72,0.054752,5.048156
[MO833] Paramount Iteration,4,72,0.054785,5.048046
[MO833] Paramount Iteration,2,72,0.054768,5.048011
[MO833] Paramount Iteration,5,72,0.054826,5.048047
[MO833] Paramount Iteration,3,72,0.054716,5.048022
[MO833] Paramount Iteration,6,72,0.054824,5.047735
[MO833] Paramount Iteration,7,72,0.054789,5.047705
[MO833] Paramount Iteration,0,73,0.126667,5.174839
[MO833] Paramount Iteration,4,73,0.126579,5.174685
[MO833] Paramount Iteration,2,73,0.126627,5.174656
[MO833] Paramount Iteration,6,73,0.126584,5.174338
[MO833] Paramount Iteration,1,73,0.126626,5.174841
[MO833] Paramount Iteration,5,73,0.126625,5.174691
[MO833] Paramount Iteration,3,73,0.126594,5.174665
[MO833] Paramount Iteration,7,73,0.126552,5.174310
[MO833] Paramount Iteration,0,74,0.055301,5.230314
[MO833] Paramount Iteration,1,74,0.055454,5.230316
[MO833] Paramount Iteration,4,74,0.055457,5.230201
[MO833] Paramount Iteration,2,74,0.055498,5.230172
[MO833] Paramount Iteration,5,74,0.055500,5.230204
[MO833] Paramount Iteration,3,74,0.055469,5.230188
[MO833] Paramount Iteration,6,74,0.055536,5.229897
[MO833] Paramount Iteration,7,74,0.055504,5.229870
[MO833] Paramount Iteration,0,75,0.055419,5.285910
[MO833] Paramount Iteration,6,75,0.055521,5.285440
[MO833] Paramount Iteration,1,75,0.055579,5.285910
[MO833] Paramount Iteration,4,75,0.055509,5.285771
[MO833] Paramount Iteration,2,75,0.055570,5.285765
[MO833] Paramount Iteration,7,75,0.055489,5.285413
[MO833] Paramount Iteration,5,75,0.055550,5.285773
[MO833] Paramount Iteration,3,75,0.055535,5.285774
[MO833] Paramount Iteration,0,76,0.055130,5.341056
[MO833] Paramount Iteration,2,76,0.055105,5.340889
[MO833] Paramount Iteration,6,76,0.055129,5.340591
[MO833] Paramount Iteration,1,76,0.055095,5.341061
[MO833] Paramount Iteration,4,76,0.055120,5.340951
[MO833] Paramount Iteration,3,76,0.055071,5.340900
[MO833] Paramount Iteration,7,76,0.055093,5.340562
[MO833] Paramount Iteration,5,76,0.055162,5.340952
[MO833] Paramount Iteration,0,77,0.055283,5.396511
[MO833] Paramount Iteration,4,77,0.055334,5.396350
[MO833] Paramount Iteration,2,77,0.055413,5.396325
[MO833] Paramount Iteration,6,77,0.055407,5.396017
[MO833] Paramount Iteration,1,77,0.055435,5.396511
[MO833] Paramount Iteration,5,77,0.055382,5.396358
[MO833] Paramount Iteration,3,77,0.055379,5.396335
[MO833] Paramount Iteration,7,77,0.055376,5.395991
[MO833] Paramount Iteration,0,78,0.054961,5.451641
[MO833] Paramount Iteration,4,78,0.055094,5.451503
[MO833] Paramount Iteration,2,78,0.055131,5.451478
[MO833] Paramount Iteration,1,78,0.055113,5.451643
[MO833] Paramount Iteration,5,78,0.055134,5.451505
[MO833] Paramount Iteration,3,78,0.055099,5.451490
[MO833] Paramount Iteration,6,78,0.055160,5.451197
[MO833] Paramount Iteration,7,78,0.055124,5.451168
[MO833] Paramount Iteration,0,79,0.055450,5.507280
[MO833] Paramount Iteration,4,79,0.055584,5.507149
[MO833] Paramount Iteration,2,79,0.055610,5.507109
[MO833] Paramount Iteration,6,79,0.055583,5.506802
[MO833] Paramount Iteration,1,79,0.055620,5.507281
[MO833] Paramount Iteration,5,79,0.055625,5.507150
[MO833] Paramount Iteration,3,79,0.055575,5.507118
[MO833] Paramount Iteration,7,79,0.055550,5.506774
[MO833] Paramount Iteration,0,80,0.054766,5.562064
[MO833] Paramount Iteration,4,80,0.054695,5.561903
[MO833] Paramount Iteration,6,80,0.054758,5.561582
[MO833] Paramount Iteration,1,80,0.054717,5.562064
[MO833] Paramount Iteration,5,80,0.054739,5.561907
[MO833] Paramount Iteration,2,80,0.054760,5.561890
[MO833] Paramount Iteration,7,80,0.054723,5.561553
[MO833] Paramount Iteration,3,80,0.054725,5.561899
[MO833] Paramount Iteration,0,81,0.055442,5.617525
[MO833] Paramount Iteration,4,81,0.055410,5.617373
[MO833] Paramount Iteration,2,81,0.055420,5.617331
[MO833] Paramount Iteration,6,81,0.055406,5.617010
[MO833] Paramount Iteration,1,81,0.055401,5.617526
[MO833] Paramount Iteration,5,81,0.055468,5.617391
[MO833] Paramount Iteration,3,81,0.055384,5.617340
[MO833] Paramount Iteration,7,81,0.055372,5.616983
[MO833] Paramount Iteration,2,82,0.055665,5.673018
[MO833] Paramount Iteration,6,82,0.055668,5.672702
[MO833] Paramount Iteration,1,82,0.055687,5.673231
[MO833] Paramount Iteration,4,82,0.055641,5.673063
[MO833] Paramount Iteration,3,82,0.055631,5.673027
[MO833] Paramount Iteration,7,82,0.055633,5.672675
[MO833] Paramount Iteration,5,82,0.055673,5.673071
[MO833] Paramount Iteration,0,82,0.055530,5.673229
[MO833] Paramount Iteration,0,83,0.126934,5.800339
[MO833] Paramount Iteration,4,83,0.127049,5.800175
[MO833] Paramount Iteration,6,83,0.127118,5.799840
[MO833] Paramount Iteration,1,83,0.127049,5.800339
[MO833] Paramount Iteration,5,83,0.127093,5.800179
[MO833] Paramount Iteration,2,83,0.127137,5.800173
[MO833] Paramount Iteration,7,83,0.127089,5.799818
[MO833] Paramount Iteration,3,83,0.127105,5.800185
[MO833] Paramount Iteration,0,84,0.055571,5.855933
[MO833] Paramount Iteration,1,84,0.055531,5.855934
[MO833] Paramount Iteration,4,84,0.055557,5.855792
[MO833] Paramount Iteration,2,84,0.055577,5.855772
[MO833] Paramount Iteration,6,84,0.055553,5.855459
[MO833] Paramount Iteration,5,84,0.055597,5.855793
[MO833] Paramount Iteration,3,84,0.055544,5.855782
[MO833] Paramount Iteration,7,84,0.055598,5.855431
[MO833] Paramount Iteration,0,85,0.055231,5.911184
[MO833] Paramount Iteration,2,85,0.055198,5.910988
[MO833] Paramount Iteration,1,85,0.055194,5.911188
[MO833] Paramount Iteration,4,85,0.055248,5.911060
[MO833] Paramount Iteration,3,85,0.055168,5.911001
[MO833] Paramount Iteration,6,85,0.055180,5.910700
[MO833] Paramount Iteration,5,85,0.055215,5.911062
[MO833] Paramount Iteration,7,85,0.055222,5.910671
[MO833] Paramount Iteration,0,86,0.055313,5.966515
[MO833] Paramount Iteration,4,86,0.055272,5.966349
[MO833] Paramount Iteration,6,86,0.055305,5.966023
[MO833] Paramount Iteration,1,86,0.055257,5.966514
[MO833] Paramount Iteration,5,86,0.055239,5.966350
[MO833] Paramount Iteration,2,86,0.055334,5.966344
[MO833] Paramount Iteration,7,86,0.055274,5.965998
[MO833] Paramount Iteration,3,86,0.055297,5.966353
[MO833] Paramount Iteration,0,87,0.055185,6.021717
[MO833] Paramount Iteration,2,87,0.055144,6.021510
[MO833] Paramount Iteration,6,87,0.055135,6.021222
[MO833] Paramount Iteration,1,87,0.055149,6.021722
[MO833] Paramount Iteration,4,87,0.055217,6.021587
[MO833] Paramount Iteration,3,87,0.055115,6.021525
[MO833] Paramount Iteration,7,87,0.055178,6.021193
[MO833] Paramount Iteration,5,87,0.055179,6.021586
[MO833] Paramount Iteration,0,88,0.055453,6.077358
[MO833] Paramount Iteration,1,88,0.055621,6.077358
[MO833] Paramount Iteration,4,88,0.055614,6.077220
[MO833] Paramount Iteration,2,88,0.055664,6.077194
[MO833] Paramount Iteration,6,88,0.055663,6.076907
[MO833] Paramount Iteration,5,88,0.055578,6.077221
[MO833] Paramount Iteration,3,88,0.055631,6.077206
[MO833] Paramount Iteration,7,88,0.055631,6.076880
[MO833] Paramount Iteration,0,89,0.054772,6.132150
[MO833] Paramount Iteration,1,89,0.054731,6.132150
[MO833] Paramount Iteration,4,89,0.054740,6.132013
[MO833] Paramount Iteration,2,89,0.054784,6.131998
[MO833] Paramount Iteration,6,89,0.054774,6.131699
[MO833] Paramount Iteration,5,89,0.054773,6.132014
[MO833] Paramount Iteration,3,89,0.054752,6.132010
[MO833] Paramount Iteration,7,89,0.054737,6.131669
[MO833] Paramount Iteration,0,90,0.055190,6.187518
[MO833] Paramount Iteration,1,90,0.055351,6.187522
[MO833] Paramount Iteration,2,90,0.055336,6.187355
[MO833] Paramount Iteration,3,90,0.055310,6.187370
[MO833] Paramount Iteration,4,90,0.055389,6.187421
[MO833] Paramount Iteration,6,90,0.055355,6.187073
[MO833] Paramount Iteration,5,90,0.055355,6.187422
[MO833] Paramount Iteration,7,90,0.055321,6.187044
[MO833] Paramount Iteration,4,91,0.127421,6.314864
[MO833] Paramount Iteration,2,91,0.127455,6.314828
[MO833] Paramount Iteration,6,91,0.127402,6.314496
[MO833] Paramount Iteration,1,91,0.127544,6.315081
[MO833] Paramount Iteration,5,91,0.127395,6.314873
[MO833] Paramount Iteration,3,91,0.127421,6.314837
[MO833] Paramount Iteration,7,91,0.127366,6.314467
[MO833] Paramount Iteration,0,91,0.127350,6.315048
[MO833] Paramount Iteration,0,92,0.055484,6.370697
[MO833] Paramount Iteration,1,92,0.055566,6.370698
[MO833] Paramount Iteration,4,92,0.055666,6.370551
[MO833] Paramount Iteration,2,92,0.055696,6.370542
[MO833] Paramount Iteration,6,92,0.055667,6.370224
[MO833] Paramount Iteration,5,92,0.055632,6.370553
[MO833] Paramount Iteration,3,92,0.055666,6.370553
[MO833] Paramount Iteration,7,92,0.055709,6.370195
[MO833] Paramount Iteration,4,93,0.055884,6.426456
[MO833] Paramount Iteration,2,93,0.055867,6.426427
[MO833] Paramount Iteration,6,93,0.055850,6.426094
[MO833] Paramount Iteration,1,93,0.055888,6.426648
[MO833] Paramount Iteration,5,93,0.055857,6.426465
[MO833] Paramount Iteration,3,93,0.055831,6.426436
[MO833] Paramount Iteration,7,93,0.055820,6.426068
[MO833] Paramount Iteration,0,93,0.055930,6.426648
[MO833] Paramount Iteration,0,94,0.055463,6.482289
[MO833] Paramount Iteration,1,94,0.055579,6.482289
[MO833] Paramount Iteration,4,94,0.055648,6.482128
[MO833] Paramount Iteration,2,94,0.055665,6.482110
[MO833] Paramount Iteration,6,94,0.055654,6.481811
[MO833] Paramount Iteration,5,94,0.055613,6.482129
[MO833] Paramount Iteration,3,94,0.055631,6.482121
[MO833] Paramount Iteration,7,94,0.055697,6.481782
[MO833] Paramount Iteration,0,95,0.055662,6.537969
[MO833] Paramount Iteration,4,95,0.055648,6.537798
[MO833] Paramount Iteration,2,95,0.055639,6.537767
[MO833] Paramount Iteration,6,95,0.055613,6.537443
[MO833] Paramount Iteration,1,95,0.055622,6.537969
[MO833] Paramount Iteration,5,95,0.055614,6.537799
[MO833] Paramount Iteration,3,95,0.055604,6.537776
[MO833] Paramount Iteration,7,95,0.055580,6.537417
[MO833] Paramount Iteration,0,96,0.055959,6.594099
[MO833] Paramount Iteration,4,96,0.056112,6.593931
[MO833] Paramount Iteration,6,96,0.056084,6.593592
[MO833] Paramount Iteration,1,96,0.056113,6.594099
[MO833] Paramount Iteration,5,96,0.056080,6.593933
[MO833] Paramount Iteration,2,96,0.056109,6.593937
[MO833] Paramount Iteration,7,96,0.056133,6.593568
[MO833] Paramount Iteration,3,96,0.056150,6.593946
[MO833] Paramount Iteration,2,97,0.055355,6.649312
[MO833] Paramount Iteration,6,97,0.055324,6.648979
[MO833] Paramount Iteration,1,97,0.055383,6.649542
[MO833] Paramount Iteration,4,97,0.055400,6.649352
[MO833] Paramount Iteration,3,97,0.055320,6.649322
[MO833] Paramount Iteration,7,97,0.055366,6.648950
[MO833] Paramount Iteration,5,97,0.055370,6.649359
[MO833] Paramount Iteration,0,97,0.055425,6.649542
[MO833] Paramount Iteration,0,98,0.055417,6.705127
[MO833] Paramount Iteration,1,98,0.055525,6.705130
[MO833] Paramount Iteration,4,98,0.055597,6.704983
[MO833] Paramount Iteration,2,98,0.055600,6.704930
[MO833] Paramount Iteration,6,98,0.055632,6.704630
[MO833] Paramount Iteration,5,98,0.055562,6.704984
[MO833] Paramount Iteration,3,98,0.055567,6.704940
[MO833] Paramount Iteration,7,98,0.055597,6.704601
[MO833] Paramount Iteration,0,99,0.055853,6.761162
[MO833] Paramount Iteration,1,99,0.056015,6.761162
[MO833] Paramount Iteration,4,99,0.056005,6.761008
[MO833] Paramount Iteration,2,99,0.056035,6.760983
[MO833] Paramount Iteration,5,99,0.055972,6.761010
[MO833] Paramount Iteration,3,99,0.056007,6.760998
[MO833] Paramount Iteration,6,99,0.056043,6.760690
[MO833] Paramount Iteration,7,99,0.056011,6.760663
---------------- Step      100 ----- CPU =      6.2855 (sec) ----------------
TotEng   =    -25290.7302 KinEng   =     21591.9084 Temp     =       301.0906 
PotEng   =    -46882.6386 E_bond   =      2567.9807 E_angle  =     10781.9571 
E_dihed  =      5198.7492 E_impro  =       216.7864 E_vdwl   =     -1902.6618 
E_coul   =    206659.5227 E_long   =   -270404.9730 Press    =         6.7407 
Volume   =    308134.2285 
[MO833] Paramount Iteration,1,100,0.146424,6.907647
[MO833] Paramount Iteration,4,100,0.146448,6.907479
[MO833] Paramount Iteration,2,100,0.146401,6.907442
[MO833] Paramount Iteration,6,100,0.146378,6.907130
[MO833] Paramount Iteration,5,100,0.146413,6.907481
[MO833] Paramount Iteration,3,100,0.146441,6.907452
[MO833] Paramount Iteration,7,100,0.146420,6.907101
[MO833] Paramount Iteration,0,100,0.146628,6.907809
Loop time of 6.28602 on 8 procs for 100 steps with 32000 atoms

Performance: 2.749 ns/day, 8.731 hours/ns, 15.908 timesteps/s
94.8% CPU use with 8 MPI tasks x 1 OpenMP threads

MPI task timing breakdown:
Section |  min time  |  avg time  |  max time  |%varavg| %total
---------------------------------------------------------------
Pair    | 3.8593     | 4.032      | 4.2439     |   5.7 | 64.14
Bond    | 0.14908    | 0.1697     | 0.19083    |   3.2 |  2.70
Kspace  | 0.61163    | 0.83411    | 0.99131    |  12.9 | 13.27
Neigh   | 0.74922    | 0.74944    | 0.74966    |   0.0 | 11.92
Comm    | 0.15886    | 0.16412    | 0.16959    |   0.8 |  2.61
Output  | 0.0014257  | 0.0015094  | 0.001766   |   0.3 |  0.02
Modify  | 0.30538    | 0.315      | 0.32003    |   0.9 |  5.01
Other   |            | 0.02013    |            |       |  0.32

Nlocal:    4000 ave 4082 max 3940 min
Histogram: 2 1 0 1 2 0 0 0 1 1
Nghost:    16027.4 ave 16084 max 15942 min
Histogram: 1 0 0 2 0 1 0 1 1 2
Neighs:    1.50351e+06 ave 1.5498e+06 max 1.46314e+06 min
Histogram: 2 0 1 0 2 1 0 0 0 2

Total # of neighbors = 12028093
Ave neighs/atom = 375.878
Ave special neighs/atom = 7.43187
Neighbor list builds = 11
Dangerous builds = 0
Total wall time: 0:00:06
[MO833] Beta,1,0.102224
[MO833] PI avg,1,0.062859,100
[MO833] Beta,2,0.102237
[MO833] PI avg,2,0.062858,100
[MO833] Beta,3,0.102253
[MO833] PI avg,3,0.062857,100
[MO833] Beta,4,0.102250
[MO833] PI avg,4,0.062858,100
[MO833] Beta,6,0.102221
[MO833] PI avg,6,0.062857,100
[MO833] Beta,7,0.102241
[MO833] PI avg,7,0.062857,100
[MO833] Beta,0,0.102275
[MO833] PI avg,0,0.062861,100
[MO833] Total time,6.929036
[MO833] Beta,5,0.102322
[MO833] PI avg,5,0.062858,100
