LAMMPS (3 Mar 2020)
OMP_NUM_THREADS environment is not set. Defaulting to 1 thread. (src/comm.cpp:94)
  using 1 OpenMP thread(s) per MPI task
Reading data file ...
  orthogonal box = (-16.796 -16.796 -16.796) to (16.796 16.796 16.796)
  2 by 2 by 2 MPI processor grid
  reading atoms ...
  32000 atoms
  reading velocities ...
  32000 velocities
  scanning bonds ...
  1 = max bonds/atom
  reading bonds ...
  31680 bonds
Finding 1-2 1-3 1-4 neighbors ...
  special bond factors lj:   0          1          1         
  special bond factors coul: 0          1          1         
  2 = max # of 1-2 neighbors
  2 = max # of special neighbors
  special bonds CPU = 0.00555325 secs
  read_data CPU = 0.154306 secs
Replicating atoms ...
  orthogonal box = (-16.796 -16.796 -16.796) to (117.572 117.572 117.572)
  2 by 2 by 2 MPI processor grid
  2048000 atoms
  2027520 bonds
Finding 1-2 1-3 1-4 neighbors ...
  special bond factors lj:   0          1          1         
  special bond factors coul: 0          1          1         
  2 = max # of 1-2 neighbors
  2 = max # of special neighbors
  special bonds CPU = 0.1508 secs
  replicate CPU = 0.292119 secs
Neighbor list info ...
  update every 1 steps, delay 1 steps, check yes
  max neighbors/atom: 2000, page size: 100000
  master list distance cutoff = 1.52
  ghost atom cutoff = 1.52
  binsize = 0.76, bins = 177 177 177
  1 neighbor lists, perpetual/occasional/extra = 1 0 0
  (1) pair lj/cut, perpetual
      attributes: half, newton on
      pair build: half/bin/newton
      stencil: half/bin/3d/newton
      bin: standard
Setting up Verlet run ...
  Unit style    : lj
  Current step  : 0
  Time step     : 0.012
WARNING: Communication cutoff 1.52 is shorter than a bond length based estimate of 1.855. This may lead to errors. (src/comm.cpp:686)
Per MPI rank memory allocation (min/avg/max) = 92.32 | 92.32 | 92.32 Mbytes
Step Temp E_pair E_mol TotEng Press 
       0   0.97026787   0.44484087    20.494523    22.394765    4.6721833 
[MO833] Paramount Iteration,0,1,0.075174,1.181601
[MO833] Paramount Iteration,1,1,0.075128,1.181560
[MO833] Paramount Iteration,6,1,0.075560,1.182087
[MO833] Paramount Iteration,4,1,0.075621,1.182000
[MO833] Paramount Iteration,7,1,0.075532,1.182059
[MO833] Paramount Iteration,2,1,0.075626,1.182085
[MO833] Paramount Iteration,5,1,0.075601,1.181982
[MO833] Paramount Iteration,3,1,0.076040,1.182452
[MO833] Paramount Iteration,0,2,0.076029,1.257643
[MO833] Paramount Iteration,1,2,0.075966,1.257625
[MO833] Paramount Iteration,6,2,0.075927,1.258028
[MO833] Paramount Iteration,7,2,0.075870,1.258026
[MO833] Paramount Iteration,2,2,0.075855,1.258064
[MO833] Paramount Iteration,4,2,0.076046,1.258065
[MO833] Paramount Iteration,5,2,0.076002,1.258102
[MO833] Paramount Iteration,3,2,0.075880,1.258369
[MO833] Paramount Iteration,0,3,0.074987,1.332639
[MO833] Paramount Iteration,1,3,0.074863,1.332612
[MO833] Paramount Iteration,4,3,0.074745,1.332899
[MO833] Paramount Iteration,5,3,0.074797,1.332908
[MO833] Paramount Iteration,6,3,0.075191,1.333246
[MO833] Paramount Iteration,7,3,0.075102,1.333217
[MO833] Paramount Iteration,2,3,0.075256,1.333435
[MO833] Paramount Iteration,3,3,0.075356,1.333749
[MO833] Paramount Iteration,0,4,0.385574,1.718222
[MO833] Paramount Iteration,1,4,0.385545,1.718280
[MO833] Paramount Iteration,6,4,0.385259,1.718515
[MO833] Paramount Iteration,4,4,0.385430,1.718410
[MO833] Paramount Iteration,7,4,0.385330,1.718640
[MO833] Paramount Iteration,5,4,0.385505,1.718430
[MO833] Paramount Iteration,2,4,0.385057,1.718603
[MO833] Paramount Iteration,3,4,0.385262,1.719035
[MO833] Paramount Iteration,0,5,0.082084,1.800381
[MO833] Paramount Iteration,1,5,0.082233,1.800613
[MO833] Paramount Iteration,2,5,0.081815,1.800528
[MO833] Paramount Iteration,5,5,0.082206,1.800645
[MO833] Paramount Iteration,4,5,0.082174,1.800664
[MO833] Paramount Iteration,6,5,0.082321,1.800870
[MO833] Paramount Iteration,7,5,0.082205,1.800878
[MO833] Paramount Iteration,3,5,0.082137,1.801196
[MO833] Paramount Iteration,1,6,0.081903,1.882621
[MO833] Paramount Iteration,0,6,0.082210,1.882665
[MO833] Paramount Iteration,2,6,0.082279,1.882920
[MO833] Paramount Iteration,6,6,0.082124,1.883025
[MO833] Paramount Iteration,7,6,0.082088,1.883053
[MO833] Paramount Iteration,4,6,0.082158,1.882921
[MO833] Paramount Iteration,5,6,0.082293,1.882970
[MO833] Paramount Iteration,3,6,0.082121,1.883348
[MO833] Paramount Iteration,0,7,0.082328,1.965002
[MO833] Paramount Iteration,1,7,0.082361,1.965123
[MO833] Paramount Iteration,6,7,0.082202,1.965261
[MO833] Paramount Iteration,7,7,0.082131,1.965289
[MO833] Paramount Iteration,2,7,0.082273,1.965305
[MO833] Paramount Iteration,5,7,0.082385,1.965363
[MO833] Paramount Iteration,4,7,0.082533,1.965543
[MO833] Paramount Iteration,3,7,0.082286,1.965659
[MO833] Paramount Iteration,0,8,0.393230,2.358264
[MO833] Paramount Iteration,1,8,0.393220,2.358396
[MO833] Paramount Iteration,6,8,0.393666,2.358962
[MO833] Paramount Iteration,2,8,0.393486,2.358913
[MO833] Paramount Iteration,4,8,0.393190,2.358774
[MO833] Paramount Iteration,7,8,0.393624,2.358998
[MO833] Paramount Iteration,5,8,0.393506,2.358903
[MO833] Paramount Iteration,3,8,0.393638,2.359320
[MO833] Paramount Iteration,1,9,0.085048,2.443460
[MO833] Paramount Iteration,0,9,0.085203,2.443538
[MO833] Paramount Iteration,7,9,0.084657,2.443665
[MO833] Paramount Iteration,6,9,0.084718,2.443813
[MO833] Paramount Iteration,2,9,0.084723,2.443750
[MO833] Paramount Iteration,5,9,0.084803,2.443725
[MO833] Paramount Iteration,4,9,0.084972,2.443830
[MO833] Paramount Iteration,3,9,0.084821,2.444166
[MO833] Paramount Iteration,0,10,0.085042,2.528598
[MO833] Paramount Iteration,1,10,0.085153,2.528644
[MO833] Paramount Iteration,6,10,0.085011,2.528865
[MO833] Paramount Iteration,5,10,0.084895,2.528654
[MO833] Paramount Iteration,7,10,0.085196,2.528893
[MO833] Paramount Iteration,4,10,0.084813,2.528673
[MO833] Paramount Iteration,2,10,0.085156,2.529016
[MO833] Paramount Iteration,3,10,0.085148,2.529340
[MO833] Paramount Iteration,1,11,0.085329,2.614043
[MO833] Paramount Iteration,0,11,0.085464,2.614138
[MO833] Paramount Iteration,6,11,0.085198,2.614168
[MO833] Paramount Iteration,4,11,0.085221,2.613987
[MO833] Paramount Iteration,7,11,0.085305,2.614206
[MO833] Paramount Iteration,2,11,0.085037,2.614169
[MO833] Paramount Iteration,5,11,0.085300,2.613985
[MO833] Paramount Iteration,3,11,0.085253,2.614613
[MO833] Paramount Iteration,0,12,0.402483,3.016639
[MO833] Paramount Iteration,1,12,0.402594,3.016669
[MO833] Paramount Iteration,6,12,0.402714,3.017008
[MO833] Paramount Iteration,2,12,0.402693,3.016979
[MO833] Paramount Iteration,7,12,0.402822,3.017036
[MO833] Paramount Iteration,4,12,0.403059,3.017124
[MO833] Paramount Iteration,5,12,0.403137,3.017148
[MO833] Paramount Iteration,3,12,0.402817,3.017463
[MO833] Paramount Iteration,1,13,0.086114,3.102793
[MO833] Paramount Iteration,0,13,0.086180,3.102895
[MO833] Paramount Iteration,6,13,0.085875,3.103002
[MO833] Paramount Iteration,2,13,0.085831,3.102918
[MO833] Paramount Iteration,7,13,0.086008,3.103053
[MO833] Paramount Iteration,4,13,0.085743,3.102952
[MO833] Paramount Iteration,5,13,0.085785,3.102941
[MO833] Paramount Iteration,3,13,0.085934,3.103420
[MO833] Paramount Iteration,1,14,0.085925,3.188749
[MO833] Paramount Iteration,7,14,0.085954,3.189016
[MO833] Paramount Iteration,5,14,0.085953,3.188926
[MO833] Paramount Iteration,0,14,0.086319,3.189239
[MO833] Paramount Iteration,6,14,0.086295,3.189411
[MO833] Paramount Iteration,2,14,0.086600,3.189630
[MO833] Paramount Iteration,4,14,0.086439,3.189467
[MO833] Paramount Iteration,3,14,0.086417,3.189864
[MO833] Paramount Iteration,1,15,0.086970,3.275748
[MO833] Paramount Iteration,0,15,0.086622,3.275901
[MO833] Paramount Iteration,5,15,0.086734,3.275693
[MO833] Paramount Iteration,2,15,0.086336,3.276074
[MO833] Paramount Iteration,4,15,0.086547,3.276060
[MO833] Paramount Iteration,6,15,0.087040,3.276497
[MO833] Paramount Iteration,7,15,0.087441,3.276490
[MO833] Paramount Iteration,3,15,0.086558,3.276449
[MO833] Paramount Iteration,1,16,0.404230,3.680008
[MO833] Paramount Iteration,0,16,0.404207,3.680143
[MO833] Paramount Iteration,5,16,0.404217,3.679943
[MO833] Paramount Iteration,4,16,0.403978,3.680083
[MO833] Paramount Iteration,2,16,0.404242,3.680427
[MO833] Paramount Iteration,6,16,0.403963,3.680565
[MO833] Paramount Iteration,7,16,0.404053,3.680568
[MO833] Paramount Iteration,3,16,0.404298,3.680771
[MO833] Paramount Iteration,6,17,0.085570,3.766247
[MO833] Paramount Iteration,2,17,0.085755,3.766293
[MO833] Paramount Iteration,0,17,0.086610,3.766790
[MO833] Paramount Iteration,1,17,0.086900,3.766941
[MO833] Paramount Iteration,4,17,0.086857,3.766982
[MO833] Paramount Iteration,5,17,0.087032,3.767008
[MO833] Paramount Iteration,3,17,0.091997,3.772793
[MO833] Paramount Iteration,7,17,0.095124,3.775722
[MO833] Paramount Iteration,6,18,0.093534,3.859842
[MO833] Paramount Iteration,4,18,0.092971,3.860039
[MO833] Paramount Iteration,0,18,0.093482,3.860333
[MO833] Paramount Iteration,5,18,0.093229,3.860246
[MO833] Paramount Iteration,2,18,0.094233,3.860602
[MO833] Paramount Iteration,1,18,0.093775,3.860735
[MO833] Paramount Iteration,3,18,0.088135,3.860961
[MO833] Paramount Iteration,7,18,0.085505,3.861292
[MO833] Paramount Iteration,6,19,0.087996,3.947866
[MO833] Paramount Iteration,0,19,0.087522,3.947914
[MO833] Paramount Iteration,7,19,0.086705,3.948047
[MO833] Paramount Iteration,1,19,0.087342,3.948094
[MO833] Paramount Iteration,4,19,0.087867,3.947981
[MO833] Paramount Iteration,5,19,0.087715,3.947981
[MO833] Paramount Iteration,2,19,0.087573,3.948290
[MO833] Paramount Iteration,3,19,0.087706,3.948691
[MO833] Paramount Iteration,0,20,0.408835,4.356799
[MO833] Paramount Iteration,1,20,0.408700,4.356814
[MO833] Paramount Iteration,6,20,0.409274,4.357173
[MO833] Paramount Iteration,7,20,0.409233,4.357323
[MO833] Paramount Iteration,4,20,0.409044,4.357103
[MO833] Paramount Iteration,5,20,0.409093,4.357098
[MO833] Paramount Iteration,2,20,0.409000,4.357404
[MO833] Paramount Iteration,3,20,0.409255,4.357969
[MO833] Paramount Iteration,0,21,0.089427,4.446301
[MO833] Paramount Iteration,1,21,0.089480,4.446304
[MO833] Paramount Iteration,7,21,0.089345,4.446707
[MO833] Paramount Iteration,4,21,0.089294,4.446478
[MO833] Paramount Iteration,5,21,0.089357,4.446487
[MO833] Paramount Iteration,6,21,0.089685,4.446893
[MO833] Paramount Iteration,2,21,0.089700,4.447212
[MO833] Paramount Iteration,3,21,0.089482,4.447509
[MO833] Paramount Iteration,0,22,0.089673,4.536046
[MO833] Paramount Iteration,1,22,0.089755,4.536081
[MO833] Paramount Iteration,4,22,0.089352,4.535913
[MO833] Paramount Iteration,5,22,0.089527,4.536035
[MO833] Paramount Iteration,6,22,0.089485,4.536420
[MO833] Paramount Iteration,7,22,0.089763,4.536565
[MO833] Paramount Iteration,2,22,0.089504,4.536754
[MO833] Paramount Iteration,3,22,0.089814,4.537369
[MO833] Paramount Iteration,1,23,0.089892,4.625981
[MO833] Paramount Iteration,0,23,0.089940,4.626058
[MO833] Paramount Iteration,6,23,0.089672,4.626125
[MO833] Paramount Iteration,7,23,0.089538,4.626146
[MO833] Paramount Iteration,5,23,0.090377,4.626430
[MO833] Paramount Iteration,4,23,0.090543,4.626528
[MO833] Paramount Iteration,2,23,0.089903,4.626699
[MO833] Paramount Iteration,3,23,0.089619,4.627045
[MO833] Paramount Iteration,6,24,0.417482,5.043639
[MO833] Paramount Iteration,7,24,0.417582,5.043811
[MO833] Paramount Iteration,0,24,0.417721,5.043796
[MO833] Paramount Iteration,1,24,0.417976,5.043987
[MO833] Paramount Iteration,4,24,0.417212,5.043763
[MO833] Paramount Iteration,5,24,0.417325,5.043788
[MO833] Paramount Iteration,2,24,0.417390,5.044129
[MO833] Paramount Iteration,3,24,0.417770,5.044865
[MO833] Paramount Iteration,0,25,0.089151,5.133003
[MO833] Paramount Iteration,1,25,0.088926,5.133031
[MO833] Paramount Iteration,5,25,0.089030,5.132827
[MO833] Paramount Iteration,4,25,0.089109,5.132956
[MO833] Paramount Iteration,6,25,0.089555,5.133226
[MO833] Paramount Iteration,7,25,0.089509,5.133359
[MO833] Paramount Iteration,2,25,0.089238,5.133405
[MO833] Paramount Iteration,3,25,0.089175,5.134095
[MO833] Paramount Iteration,4,26,0.089543,5.222539
[MO833] Paramount Iteration,5,26,0.089792,5.222651
[MO833] Paramount Iteration,0,26,0.089793,5.222877
[MO833] Paramount Iteration,1,26,0.090091,5.223130
[MO833] Paramount Iteration,7,26,0.089772,5.223166
[MO833] Paramount Iteration,6,26,0.090047,5.223306
[MO833] Paramount Iteration,2,26,0.089960,5.223396
[MO833] Paramount Iteration,3,26,0.089690,5.223836
[MO833] Paramount Iteration,6,27,0.088941,5.312267
[MO833] Paramount Iteration,7,27,0.089217,5.312466
[MO833] Paramount Iteration,0,27,0.089479,5.312405
[MO833] Paramount Iteration,4,27,0.089625,5.312238
[MO833] Paramount Iteration,5,27,0.089569,5.312237
[MO833] Paramount Iteration,1,27,0.089413,5.312669
[MO833] Paramount Iteration,3,27,0.089440,5.313323
[MO833] Paramount Iteration,2,27,0.090364,5.313796
[MO833] Paramount Iteration,0,28,0.419456,5.731911
[MO833] Paramount Iteration,6,28,0.419666,5.731967
[MO833] Paramount Iteration,4,28,0.419403,5.731723
[MO833] Paramount Iteration,1,28,0.419196,5.731933
[MO833] Paramount Iteration,5,28,0.419575,5.731842
[MO833] Paramount Iteration,2,28,0.418276,5.732143
[MO833] Paramount Iteration,7,28,0.419868,5.732377
[MO833] Paramount Iteration,3,28,0.419599,5.733002
[MO833] Paramount Iteration,0,29,0.089831,5.821815
[MO833] Paramount Iteration,1,29,0.089858,5.821799
[MO833] Paramount Iteration,6,29,0.090221,5.822220
[MO833] Paramount Iteration,7,29,0.089907,5.822327
[MO833] Paramount Iteration,2,29,0.090150,5.822410
[MO833] Paramount Iteration,5,29,0.090369,5.822229
[MO833] Paramount Iteration,4,29,0.090445,5.822245
[MO833] Paramount Iteration,3,29,0.089727,5.822756
[MO833] Paramount Iteration,1,30,0.088928,5.910852
[MO833] Paramount Iteration,0,30,0.089076,5.910902
[MO833] Paramount Iteration,6,30,0.088946,5.911199
[MO833] Paramount Iteration,7,30,0.088862,5.911219
[MO833] Paramount Iteration,2,30,0.088748,5.911284
[MO833] Paramount Iteration,5,30,0.088842,5.911101
[MO833] Paramount Iteration,4,30,0.088884,5.911204
[MO833] Paramount Iteration,3,30,0.088950,5.911729
[MO833] Paramount Iteration,0,31,0.088933,5.999844
[MO833] Paramount Iteration,1,31,0.088860,5.999841
[MO833] Paramount Iteration,6,31,0.088977,6.000207
[MO833] Paramount Iteration,7,31,0.089001,6.000298
[MO833] Paramount Iteration,2,31,0.088975,6.000366
[MO833] Paramount Iteration,5,31,0.089350,6.000485
[MO833] Paramount Iteration,4,31,0.089277,6.000507
[MO833] Paramount Iteration,3,31,0.089044,6.000796
[MO833] Paramount Iteration,0,32,0.429235,6.429102
[MO833] Paramount Iteration,1,32,0.429131,6.429092
[MO833] Paramount Iteration,6,32,0.429403,6.429644
[MO833] Paramount Iteration,2,32,0.429124,6.429602
[MO833] Paramount Iteration,7,32,0.429519,6.429839
[MO833] Paramount Iteration,4,32,0.428929,6.429513
[MO833] Paramount Iteration,5,32,0.429042,6.429557
[MO833] Paramount Iteration,3,32,0.429530,6.430382
[MO833] Paramount Iteration,0,33,0.090992,6.520110
[MO833] Paramount Iteration,1,33,0.090936,6.520149
[MO833] Paramount Iteration,6,33,0.090907,6.520587
[MO833] Paramount Iteration,4,33,0.090669,6.520270
[MO833] Paramount Iteration,7,33,0.090732,6.520612
[MO833] Paramount Iteration,5,33,0.090720,6.520286
[MO833] Paramount Iteration,2,33,0.091114,6.520828
[MO833] Paramount Iteration,3,33,0.090684,6.521122
[MO833] Paramount Iteration,0,34,0.091458,6.611645
[MO833] Paramount Iteration,1,34,0.091465,6.611622
[MO833] Paramount Iteration,6,34,0.091263,6.611886
[MO833] Paramount Iteration,2,34,0.090874,6.611818
[MO833] Paramount Iteration,7,34,0.091364,6.612061
[MO833] Paramount Iteration,4,34,0.091357,6.611708
[MO833] Paramount Iteration,5,34,0.091489,6.611786
[MO833] Paramount Iteration,3,34,0.091332,6.612511
[MO833] Paramount Iteration,1,35,0.090480,6.702230
[MO833] Paramount Iteration,0,35,0.090620,6.702273
[MO833] Paramount Iteration,7,35,0.090272,6.702373
[MO833] Paramount Iteration,6,35,0.090522,6.702446
[MO833] Paramount Iteration,5,35,0.090485,6.702315
[MO833] Paramount Iteration,4,35,0.090636,6.702422
[MO833] Paramount Iteration,2,35,0.090767,6.702698
[MO833] Paramount Iteration,3,35,0.090505,6.703075
[MO833] Paramount Iteration,0,36,0.425629,7.127911
[MO833] Paramount Iteration,1,36,0.425610,7.127965
[MO833] Paramount Iteration,6,36,0.425740,7.128195
[MO833] Paramount Iteration,7,36,0.425709,7.128174
[MO833] Paramount Iteration,2,36,0.425590,7.128403
[MO833] Paramount Iteration,4,36,0.425661,7.128114
[MO833] Paramount Iteration,5,36,0.425767,7.128116
[MO833] Paramount Iteration,3,36,0.425639,7.128770
[MO833] Paramount Iteration,1,37,0.090252,7.218312
[MO833] Paramount Iteration,0,37,0.090379,7.218363
[MO833] Paramount Iteration,4,37,0.090485,7.218680
[MO833] Paramount Iteration,7,37,0.090809,7.219065
[MO833] Paramount Iteration,5,37,0.090556,7.218700
[MO833] Paramount Iteration,6,37,0.090906,7.219110
[MO833] Paramount Iteration,2,37,0.090790,7.219230
[MO833] Paramount Iteration,3,37,0.090807,7.219625
[MO833] Paramount Iteration,0,38,0.091112,7.309484
[MO833] Paramount Iteration,1,38,0.091348,7.309785
[MO833] Paramount Iteration,7,38,0.090837,7.309991
[MO833] Paramount Iteration,4,38,0.090847,7.309606
[MO833] Paramount Iteration,6,38,0.090919,7.310038
[MO833] Paramount Iteration,5,38,0.091132,7.309839
[MO833] Paramount Iteration,2,38,0.091147,7.310414
[MO833] Paramount Iteration,3,38,0.091158,7.310834
[MO833] Paramount Iteration,0,39,0.091732,7.401287
[MO833] Paramount Iteration,6,39,0.091271,7.401317
[MO833] Paramount Iteration,7,39,0.091342,7.401420
[MO833] Paramount Iteration,1,39,0.091615,7.401475
[MO833] Paramount Iteration,2,39,0.091287,7.401738
[MO833] Paramount Iteration,5,39,0.091654,7.401514
[MO833] Paramount Iteration,4,39,0.091849,7.401535
[MO833] Paramount Iteration,3,39,0.091343,7.402229
[MO833] Paramount Iteration,0,40,0.435018,7.836366
[MO833] Paramount Iteration,1,40,0.434855,7.836402
[MO833] Paramount Iteration,6,40,0.435433,7.836784
[MO833] Paramount Iteration,7,40,0.435514,7.836962
[MO833] Paramount Iteration,2,40,0.435111,7.836884
[MO833] Paramount Iteration,4,40,0.434979,7.836593
[MO833] Paramount Iteration,5,40,0.435116,7.836662
[MO833] Paramount Iteration,3,40,0.435289,7.837572
[MO833] Paramount Iteration,0,41,0.091830,7.928272
[MO833] Paramount Iteration,1,41,0.091860,7.928270
[MO833] Paramount Iteration,6,41,0.091945,7.928760
[MO833] Paramount Iteration,5,41,0.091696,7.928368
[MO833] Paramount Iteration,7,41,0.091725,7.928733
[MO833] Paramount Iteration,4,41,0.091706,7.928389
[MO833] Paramount Iteration,2,41,0.092155,7.929077
[MO833] Paramount Iteration,3,41,0.091838,7.929466
[MO833] Paramount Iteration,1,42,0.092579,8.020973
[MO833] Paramount Iteration,0,42,0.092774,8.021069
[MO833] Paramount Iteration,7,42,0.092568,8.021389
[MO833] Paramount Iteration,6,42,0.092867,8.021636
[MO833] Paramount Iteration,5,42,0.092920,8.021320
[MO833] Paramount Iteration,4,42,0.092958,8.021430
[MO833] Paramount Iteration,2,42,0.092695,8.021813
[MO833] Paramount Iteration,3,42,0.092523,8.022037
[MO833] Paramount Iteration,0,43,0.092042,8.113150
[MO833] Paramount Iteration,1,43,0.092078,8.113163
[MO833] Paramount Iteration,7,43,0.092097,8.113571
[MO833] Paramount Iteration,6,43,0.092069,8.113727
[MO833] Paramount Iteration,2,43,0.091737,8.113659
[MO833] Paramount Iteration,5,43,0.092220,8.113572
[MO833] Paramount Iteration,4,43,0.092204,8.113669
[MO833] Paramount Iteration,3,43,0.092218,8.114310
[MO833] Paramount Iteration,0,44,0.424567,8.537788
[MO833] Paramount Iteration,1,44,0.424770,8.537943
[MO833] Paramount Iteration,7,44,0.424668,8.538323
[MO833] Paramount Iteration,4,44,0.424284,8.537983
[MO833] Paramount Iteration,6,44,0.424796,8.538544
[MO833] Paramount Iteration,5,44,0.424564,8.538169
[MO833] Paramount Iteration,2,44,0.424937,8.538704
[MO833] Paramount Iteration,3,44,0.424714,8.539081
[MO833] Paramount Iteration,0,45,0.092976,8.630831
[MO833] Paramount Iteration,1,45,0.092861,8.630874
[MO833] Paramount Iteration,6,45,0.092345,8.630950
[MO833] Paramount Iteration,7,45,0.092677,8.631080
[MO833] Paramount Iteration,2,45,0.092593,8.631332
[MO833] Paramount Iteration,4,45,0.092945,8.631006
[MO833] Paramount Iteration,5,45,0.092887,8.631078
[MO833] Paramount Iteration,3,45,0.092795,8.631928
[MO833] Paramount Iteration,1,46,0.092513,8.723396
[MO833] Paramount Iteration,0,46,0.092530,8.723437
[MO833] Paramount Iteration,7,46,0.092616,8.723715
[MO833] Paramount Iteration,4,46,0.092226,8.723305
[MO833] Paramount Iteration,5,46,0.092179,8.723297
[MO833] Paramount Iteration,6,46,0.092905,8.723951
[MO833] Paramount Iteration,2,46,0.092676,8.724048
[MO833] Paramount Iteration,3,46,0.092509,8.724489
[MO833] Paramount Iteration,0,47,0.092595,8.816042
[MO833] Paramount Iteration,1,47,0.092538,8.816061
[MO833] Paramount Iteration,5,47,0.092758,8.816085
[MO833] Paramount Iteration,4,47,0.092806,8.816180
[MO833] Paramount Iteration,6,47,0.092752,8.816743
[MO833] Paramount Iteration,2,47,0.092625,8.816710
[MO833] Paramount Iteration,7,47,0.092986,8.816735
[MO833] Paramount Iteration,3,47,0.092592,8.817129
[MO833] Paramount Iteration,0,48,0.425176,9.241290
[MO833] Paramount Iteration,1,48,0.425223,9.241293
[MO833] Paramount Iteration,6,48,0.424792,9.241631
[MO833] Paramount Iteration,7,48,0.424946,9.241709
[MO833] Paramount Iteration,4,48,0.425067,9.241276
[MO833] Paramount Iteration,5,48,0.425188,9.241308
[MO833] Paramount Iteration,2,48,0.425167,9.241914
[MO833] Paramount Iteration,3,48,0.425194,9.242389
[MO833] Paramount Iteration,0,49,0.091667,9.333029
[MO833] Paramount Iteration,1,49,0.091747,9.333058
[MO833] Paramount Iteration,5,49,0.091469,9.332786
[MO833] Paramount Iteration,6,49,0.091500,9.333258
[MO833] Paramount Iteration,7,49,0.091531,9.333258
[MO833] Paramount Iteration,4,49,0.091550,9.332908
[MO833] Paramount Iteration,2,49,0.091694,9.333644
[MO833] Paramount Iteration,3,49,0.091553,9.333991
[MO833] Paramount Iteration,0,50,0.092621,9.425730
[MO833] Paramount Iteration,1,50,0.092645,9.425712
[MO833] Paramount Iteration,4,50,0.092526,9.425470
[MO833] Paramount Iteration,5,50,0.092673,9.425490
[MO833] Paramount Iteration,6,50,0.093016,9.426370
[MO833] Paramount Iteration,7,50,0.093076,9.426357
[MO833] Paramount Iteration,2,50,0.092759,9.426437
[MO833] Paramount Iteration,3,50,0.092872,9.426912
[MO833] Paramount Iteration,1,51,0.092450,9.518374
[MO833] Paramount Iteration,0,51,0.092692,9.518430
[MO833] Paramount Iteration,7,51,0.092264,9.518652
[MO833] Paramount Iteration,6,51,0.092448,9.518918
[MO833] Paramount Iteration,4,51,0.092901,9.518465
[MO833] Paramount Iteration,5,51,0.092951,9.518450
[MO833] Paramount Iteration,2,51,0.092684,9.519169
[MO833] Paramount Iteration,3,51,0.092597,9.519561
[MO833] Paramount Iteration,6,52,0.429891,9.948874
[MO833] Paramount Iteration,0,52,0.430465,9.948904
[MO833] Paramount Iteration,7,52,0.430358,9.949043
[MO833] Paramount Iteration,2,52,0.429785,9.948994
[MO833] Paramount Iteration,1,52,0.430576,9.949080
[MO833] Paramount Iteration,4,52,0.430651,9.949181
[MO833] Paramount Iteration,3,52,0.430001,9.949612
[MO833] Paramount Iteration,5,52,0.430703,9.949183
[MO833] Paramount Iteration,2,53,0.091200,10.040228
[MO833] Paramount Iteration,6,53,0.091367,10.040342
[MO833] Paramount Iteration,0,53,0.091358,10.040319
[MO833] Paramount Iteration,1,53,0.091085,10.040234
[MO833] Paramount Iteration,7,53,0.091430,10.040496
[MO833] Paramount Iteration,4,53,0.090983,10.040190
[MO833] Paramount Iteration,5,53,0.091067,10.040361
[MO833] Paramount Iteration,3,53,0.091261,10.040932
[MO833] Paramount Iteration,7,54,0.089332,10.129851
[MO833] Paramount Iteration,6,54,0.089434,10.129873
[MO833] Paramount Iteration,2,54,0.089657,10.129919
[MO833] Paramount Iteration,0,54,0.089584,10.129954
[MO833] Paramount Iteration,1,54,0.089629,10.130042
[MO833] Paramount Iteration,3,54,0.089269,10.130251
[MO833] Paramount Iteration,4,54,0.089829,10.130052
[MO833] Paramount Iteration,5,54,0.089664,10.130063
[MO833] Paramount Iteration,7,55,0.092305,10.222187
[MO833] Paramount Iteration,2,55,0.092236,10.222187
[MO833] Paramount Iteration,0,55,0.092171,10.222185
[MO833] Paramount Iteration,6,55,0.092383,10.222357
[MO833] Paramount Iteration,1,55,0.092287,10.222380
[MO833] Paramount Iteration,3,55,0.092180,10.222496
[MO833] Paramount Iteration,4,55,0.092381,10.222466
[MO833] Paramount Iteration,5,55,0.092310,10.222483
[MO833] Paramount Iteration,0,56,0.418776,10.641020
[MO833] Paramount Iteration,7,56,0.418920,10.641141
[MO833] Paramount Iteration,2,56,0.418898,10.641118
[MO833] Paramount Iteration,1,56,0.418763,10.641221
[MO833] Paramount Iteration,6,56,0.418938,10.641376
[MO833] Paramount Iteration,3,56,0.419006,10.641545
[MO833] Paramount Iteration,4,56,0.418698,10.641202
[MO833] Paramount Iteration,5,56,0.418817,10.641411
[MO833] Paramount Iteration,0,57,0.091221,10.732312
[MO833] Paramount Iteration,1,57,0.091097,10.732437
[MO833] Paramount Iteration,6,57,0.091241,10.732661
[MO833] Paramount Iteration,7,57,0.091487,10.732661
[MO833] Paramount Iteration,2,57,0.091750,10.732902
[MO833] Paramount Iteration,4,57,0.091369,10.732650
[MO833] Paramount Iteration,5,57,0.091206,10.732680
[MO833] Paramount Iteration,3,57,0.091728,10.733323
[MO833] Paramount Iteration,0,58,0.092265,10.824647
[MO833] Paramount Iteration,1,58,0.092141,10.824641
[MO833] Paramount Iteration,7,58,0.092484,10.825173
[MO833] Paramount Iteration,6,58,0.092619,10.825380
[MO833] Paramount Iteration,2,58,0.092364,10.825301
[MO833] Paramount Iteration,3,58,0.092230,10.825601
[MO833] Paramount Iteration,5,58,0.092541,10.825232
[MO833] Paramount Iteration,4,58,0.092545,10.825306
[MO833] Paramount Iteration,0,59,0.091567,10.916278
[MO833] Paramount Iteration,1,59,0.091587,10.916251
[MO833] Paramount Iteration,7,59,0.091451,10.916658
[MO833] Paramount Iteration,6,59,0.091622,10.917069
[MO833] Paramount Iteration,5,59,0.091419,10.916758
[MO833] Paramount Iteration,2,59,0.091852,10.917201
[MO833] Paramount Iteration,4,59,0.091460,10.916806
[MO833] Paramount Iteration,3,59,0.091756,10.917413
[MO833] Paramount Iteration,1,60,0.427368,11.343744
[MO833] Paramount Iteration,0,60,0.427484,11.343771
[MO833] Paramount Iteration,6,60,0.426847,11.343963
[MO833] Paramount Iteration,7,60,0.427311,11.344005
[MO833] Paramount Iteration,4,60,0.426872,11.343688
[MO833] Paramount Iteration,2,60,0.426882,11.344117
[MO833] Paramount Iteration,5,60,0.426821,11.343697
[MO833] Paramount Iteration,3,60,0.427374,11.344842
[MO833] Paramount Iteration,1,61,0.093543,11.437408
[MO833] Paramount Iteration,0,61,0.093713,11.437493
[MO833] Paramount Iteration,6,61,0.093987,11.438051
[MO833] Paramount Iteration,7,61,0.094067,11.438082
[MO833] Paramount Iteration,5,61,0.094022,11.437740
[MO833] Paramount Iteration,2,61,0.094052,11.438208
[MO833] Paramount Iteration,4,61,0.094015,11.437781
[MO833] Paramount Iteration,3,61,0.093639,11.438539
[MO833] Paramount Iteration,0,62,0.093274,11.530797
[MO833] Paramount Iteration,1,62,0.093255,11.530785
[MO833] Paramount Iteration,5,62,0.092917,11.530763
[MO833] Paramount Iteration,7,62,0.093204,11.531295
[MO833] Paramount Iteration,4,62,0.093019,11.530810
[MO833] Paramount Iteration,6,62,0.093317,11.531488
[MO833] Paramount Iteration,2,62,0.093550,11.531793
[MO833] Paramount Iteration,3,62,0.093497,11.532081
[MO833] Paramount Iteration,0,63,0.094091,11.624904
[MO833] Paramount Iteration,1,63,0.093992,11.624900
[MO833] Paramount Iteration,5,63,0.093872,11.624754
[MO833] Paramount Iteration,4,63,0.093965,11.624784
[MO833] Paramount Iteration,2,63,0.093611,11.625439
[MO833] Paramount Iteration,7,63,0.094272,11.625602
[MO833] Paramount Iteration,6,63,0.094179,11.625733
[MO833] Paramount Iteration,3,63,0.093840,11.625968
[MO833] Paramount Iteration,0,64,0.430488,12.055412
[MO833] Paramount Iteration,1,64,0.430362,12.055385
[MO833] Paramount Iteration,6,64,0.430049,12.055843
[MO833] Paramount Iteration,4,64,0.430530,12.055324
[MO833] Paramount Iteration,7,64,0.430192,12.055831
[MO833] Paramount Iteration,2,64,0.430335,12.055807
[MO833] Paramount Iteration,5,64,0.430445,12.055298
[MO833] Paramount Iteration,3,64,0.430361,12.056379
[MO833] Paramount Iteration,1,65,0.092358,12.147866
[MO833] Paramount Iteration,0,65,0.092491,12.147912
[MO833] Paramount Iteration,6,65,0.092348,12.148207
[MO833] Paramount Iteration,2,65,0.092327,12.148170
[MO833] Paramount Iteration,7,65,0.092390,12.148314
[MO833] Paramount Iteration,4,65,0.092625,12.147958
[MO833] Paramount Iteration,5,65,0.092530,12.147947
[MO833] Paramount Iteration,3,65,0.092452,12.148896
[MO833] Paramount Iteration,0,66,0.092957,12.240879
[MO833] Paramount Iteration,1,66,0.092866,12.240860
[MO833] Paramount Iteration,7,66,0.093029,12.241383
[MO833] Paramount Iteration,5,66,0.092875,12.240930
[MO833] Paramount Iteration,6,66,0.093120,12.241434
[MO833] Paramount Iteration,4,66,0.092996,12.240969
[MO833] Paramount Iteration,2,66,0.093335,12.241542
[MO833] Paramount Iteration,3,66,0.093032,12.241977
[MO833] Paramount Iteration,0,67,0.092846,12.333734
[MO833] Paramount Iteration,1,67,0.092902,12.333883
[MO833] Paramount Iteration,7,67,0.092705,12.334180
[MO833] Paramount Iteration,6,67,0.092796,12.334240
[MO833] Paramount Iteration,2,67,0.092837,12.334413
[MO833] Paramount Iteration,5,67,0.092921,12.333953
[MO833] Paramount Iteration,4,67,0.093050,12.334029
[MO833] Paramount Iteration,3,67,0.092710,12.334739
[MO833] Paramount Iteration,0,68,0.422641,12.756444
[MO833] Paramount Iteration,2,68,0.422187,12.756632
[MO833] Paramount Iteration,1,68,0.422865,12.756818
[MO833] Paramount Iteration,6,68,0.422675,12.756925
[MO833] Paramount Iteration,4,68,0.422386,12.756434
[MO833] Paramount Iteration,7,68,0.422966,12.757230
[MO833] Paramount Iteration,5,68,0.422856,12.756969
[MO833] Paramount Iteration,3,68,0.422742,12.757526
[MO833] Paramount Iteration,2,69,0.090522,12.847261
[MO833] Paramount Iteration,0,69,0.091105,12.847618
[MO833] Paramount Iteration,6,69,0.090768,12.847801
[MO833] Paramount Iteration,4,69,0.090920,12.847389
[MO833] Paramount Iteration,7,69,0.090853,12.848106
[MO833] Paramount Iteration,3,69,0.090481,12.848063
[MO833] Paramount Iteration,1,69,0.091275,12.848231
[MO833] Paramount Iteration,5,69,0.090944,12.847976
[MO833] Paramount Iteration,0,70,0.091764,12.939447
[MO833] Paramount Iteration,2,70,0.092193,12.939551
[MO833] Paramount Iteration,4,70,0.091801,12.939224
[MO833] Paramount Iteration,1,70,0.091470,12.939769
[MO833] Paramount Iteration,6,70,0.092084,12.939967
[MO833] Paramount Iteration,5,70,0.091465,12.939489
[MO833] Paramount Iteration,7,70,0.091883,12.940012
[MO833] Paramount Iteration,3,70,0.091839,12.939960
[MO833] Paramount Iteration,0,71,0.091366,13.030922
[MO833] Paramount Iteration,1,71,0.091118,13.030961
[MO833] Paramount Iteration,4,71,0.091589,13.030845
[MO833] Paramount Iteration,2,71,0.091730,13.031376
[MO833] Paramount Iteration,5,71,0.091334,13.030865
[MO833] Paramount Iteration,3,71,0.091651,13.031662
[MO833] Paramount Iteration,7,71,0.091826,13.031848
[MO833] Paramount Iteration,6,71,0.091886,13.031978
[MO833] Paramount Iteration,0,72,0.413266,13.444263
[MO833] Paramount Iteration,1,72,0.413346,13.444317
[MO833] Paramount Iteration,2,72,0.412939,13.444417
[MO833] Paramount Iteration,7,72,0.412621,13.444505
[MO833] Paramount Iteration,6,72,0.412522,13.444561
[MO833] Paramount Iteration,3,72,0.412838,13.444557
[MO833] Paramount Iteration,4,72,0.413642,13.444521
[MO833] Paramount Iteration,5,72,0.413573,13.444521
[MO833] Paramount Iteration,2,73,0.090537,13.535052
[MO833] Paramount Iteration,0,73,0.090746,13.535077
[MO833] Paramount Iteration,1,73,0.090683,13.535157
[MO833] Paramount Iteration,4,73,0.090148,13.534749
[MO833] Paramount Iteration,5,73,0.090309,13.534857
[MO833] Paramount Iteration,6,73,0.090916,13.535487
[MO833] Paramount Iteration,3,73,0.090990,13.535566
[MO833] Paramount Iteration,7,73,0.091153,13.535736
[MO833] Paramount Iteration,0,74,0.090682,13.625808
[MO833] Paramount Iteration,1,74,0.090558,13.625814
[MO833] Paramount Iteration,6,74,0.090723,13.626247
[MO833] Paramount Iteration,4,74,0.090903,13.625730
[MO833] Paramount Iteration,5,74,0.090784,13.625716
[MO833] Paramount Iteration,7,74,0.090622,13.626402
[MO833] Paramount Iteration,2,74,0.091200,13.626356
[MO833] Paramount Iteration,3,74,0.091151,13.626745
[MO833] Paramount Iteration,0,75,0.092778,13.718656
[MO833] Paramount Iteration,1,75,0.092850,13.718680
[MO833] Paramount Iteration,4,75,0.093028,13.718768
[MO833] Paramount Iteration,2,75,0.092862,13.719322
[MO833] Paramount Iteration,5,75,0.092964,13.718782
[MO833] Paramount Iteration,6,75,0.093169,13.719452
[MO833] Paramount Iteration,7,75,0.093029,13.719471
[MO833] Paramount Iteration,3,75,0.092910,13.719677
[MO833] Paramount Iteration,1,76,0.420589,14.139278
[MO833] Paramount Iteration,0,76,0.420620,14.139359
[MO833] Paramount Iteration,7,76,0.420244,14.139787
[MO833] Paramount Iteration,2,76,0.420437,14.139866
[MO833] Paramount Iteration,4,76,0.420821,14.139674
[MO833] Paramount Iteration,5,76,0.420860,14.139658
[MO833] Paramount Iteration,3,76,0.420617,14.140318
[MO833] Paramount Iteration,6,76,0.421631,14.141115
[MO833] Paramount Iteration,0,77,0.093097,14.232483
[MO833] Paramount Iteration,1,77,0.093063,14.232473
[MO833] Paramount Iteration,6,77,0.091816,14.232957
[MO833] Paramount Iteration,7,77,0.093204,14.233067
[MO833] Paramount Iteration,4,77,0.092860,14.232548
[MO833] Paramount Iteration,5,77,0.092794,14.232574
[MO833] Paramount Iteration,2,77,0.093184,14.233151
[MO833] Paramount Iteration,3,77,0.093329,14.233701
[MO833] Paramount Iteration,7,78,0.094033,14.327132
[MO833] Paramount Iteration,6,78,0.094283,14.327273
[MO833] Paramount Iteration,0,78,0.094625,14.327125
[MO833] Paramount Iteration,1,78,0.094634,14.327230
[MO833] Paramount Iteration,2,78,0.094130,14.327317
[MO833] Paramount Iteration,5,78,0.094325,14.327051
[MO833] Paramount Iteration,3,78,0.093893,14.327648
[MO833] Paramount Iteration,4,78,0.094595,14.327178
[MO833] Paramount Iteration,0,79,0.093458,14.420632
[MO833] Paramount Iteration,1,79,0.093693,14.420992
[MO833] Paramount Iteration,6,79,0.093931,14.421225
[MO833] Paramount Iteration,7,79,0.094108,14.421319
[MO833] Paramount Iteration,2,79,0.094058,14.421408
[MO833] Paramount Iteration,4,79,0.093805,14.421003
[MO833] Paramount Iteration,3,79,0.094221,14.421919
[MO833] Paramount Iteration,5,79,0.094399,14.421561
[MO833] Paramount Iteration,6,80,0.432785,14.854042
[MO833] Paramount Iteration,7,80,0.432704,14.854052
[MO833] Paramount Iteration,2,80,0.432626,14.854068
[MO833] Paramount Iteration,0,80,0.433330,14.854035
[MO833] Paramount Iteration,4,80,0.432763,14.853802
[MO833] Paramount Iteration,5,80,0.432260,14.853872
[MO833] Paramount Iteration,1,80,0.433322,14.854396
[MO833] Paramount Iteration,3,80,0.432522,14.854489
[MO833] Paramount Iteration,0,81,0.092516,14.946615
[MO833] Paramount Iteration,6,81,0.092740,14.946814
[MO833] Paramount Iteration,7,81,0.092777,14.946911
[MO833] Paramount Iteration,2,81,0.092727,14.946832
[MO833] Paramount Iteration,1,81,0.092430,14.946892
[MO833] Paramount Iteration,4,81,0.092913,14.946807
[MO833] Paramount Iteration,3,81,0.092789,14.947328
[MO833] Paramount Iteration,5,81,0.092927,14.946810
[MO833] Paramount Iteration,6,82,0.093704,15.040550
[MO833] Paramount Iteration,0,82,0.093787,15.040479
[MO833] Paramount Iteration,7,82,0.093630,15.040569
[MO833] Paramount Iteration,2,82,0.093739,15.040604
[MO833] Paramount Iteration,1,82,0.093479,15.040444
[MO833] Paramount Iteration,5,82,0.093424,15.040258
[MO833] Paramount Iteration,4,82,0.093436,15.040322
[MO833] Paramount Iteration,3,82,0.093598,15.040978
[MO833] Paramount Iteration,2,83,0.092957,15.133672
[MO833] Paramount Iteration,0,83,0.093205,15.133737
[MO833] Paramount Iteration,7,83,0.093236,15.133873
[MO833] Paramount Iteration,6,83,0.093340,15.133920
[MO833] Paramount Iteration,4,83,0.093053,15.133385
[MO833] Paramount Iteration,5,83,0.093091,15.133473
[MO833] Paramount Iteration,1,83,0.093313,15.133953
[MO833] Paramount Iteration,3,83,0.093030,15.134058
[MO833] Paramount Iteration,1,84,0.423316,15.557390
[MO833] Paramount Iteration,0,84,0.423648,15.557445
[MO833] Paramount Iteration,2,84,0.423794,15.557567
[MO833] Paramount Iteration,6,84,0.423840,15.557770
[MO833] Paramount Iteration,7,84,0.423791,15.557760
[MO833] Paramount Iteration,4,84,0.423803,15.557274
[MO833] Paramount Iteration,5,84,0.423709,15.557290
[MO833] Paramount Iteration,3,84,0.423789,15.557897
[MO833] Paramount Iteration,0,85,0.092476,15.649930
[MO833] Paramount Iteration,1,85,0.092575,15.650093
[MO833] Paramount Iteration,2,85,0.092547,15.650192
[MO833] Paramount Iteration,6,85,0.092793,15.650580
[MO833] Paramount Iteration,7,85,0.092773,15.650616
[MO833] Paramount Iteration,4,85,0.092689,15.650048
[MO833] Paramount Iteration,5,85,0.092818,15.650122
[MO833] Paramount Iteration,3,85,0.092785,15.650734
[MO833] Paramount Iteration,1,86,0.092817,15.743000
[MO833] Paramount Iteration,0,86,0.093084,15.743082
[MO833] Paramount Iteration,7,86,0.092896,15.743521
[MO833] Paramount Iteration,2,86,0.093293,15.743585
[MO833] Paramount Iteration,4,86,0.092935,15.743067
[MO833] Paramount Iteration,6,86,0.092997,15.743686
[MO833] Paramount Iteration,5,86,0.092842,15.743064
[MO833] Paramount Iteration,3,86,0.093012,15.743805
[MO833] Paramount Iteration,0,87,0.428394,16.171504
[MO833] Paramount Iteration,1,87,0.428418,16.171535
[MO833] Paramount Iteration,6,87,0.428290,16.172064
[MO833] Paramount Iteration,4,87,0.428417,16.171561
[MO833] Paramount Iteration,5,87,0.428459,16.171551
[MO833] Paramount Iteration,2,87,0.428495,16.172187
[MO833] Paramount Iteration,7,87,0.429018,16.172628
[MO833] Paramount Iteration,3,87,0.428826,16.172654
[MO833] Paramount Iteration,0,88,0.094941,16.266520
[MO833] Paramount Iteration,1,88,0.094971,16.266516
[MO833] Paramount Iteration,6,88,0.095043,16.267219
[MO833] Paramount Iteration,5,88,0.094981,16.266566
[MO833] Paramount Iteration,7,88,0.094550,16.267203
[MO833] Paramount Iteration,4,88,0.094952,16.266592
[MO833] Paramount Iteration,2,88,0.094928,16.267231
[MO833] Paramount Iteration,3,88,0.094846,16.267526
[MO833] Paramount Iteration,0,89,0.094685,16.361226
[MO833] Paramount Iteration,1,89,0.094570,16.361205
[MO833] Paramount Iteration,6,89,0.094470,16.361785
[MO833] Paramount Iteration,2,89,0.094450,16.361768
[MO833] Paramount Iteration,4,89,0.094511,16.361184
[MO833] Paramount Iteration,7,89,0.094637,16.361872
[MO833] Paramount Iteration,5,89,0.094618,16.361219
[MO833] Paramount Iteration,3,89,0.094610,16.362161
[MO833] Paramount Iteration,0,90,0.427062,16.788297
[MO833] Paramount Iteration,1,90,0.426967,16.788294
[MO833] Paramount Iteration,2,90,0.426766,16.788644
[MO833] Paramount Iteration,6,90,0.427096,16.789019
[MO833] Paramount Iteration,7,90,0.427149,16.789040
[MO833] Paramount Iteration,3,90,0.426926,16.789111
[MO833] Paramount Iteration,5,90,0.427408,16.788637
[MO833] Paramount Iteration,4,90,0.427507,16.788783
[MO833] Paramount Iteration,1,91,0.094277,16.882695
[MO833] Paramount Iteration,0,91,0.094403,16.882721
[MO833] Paramount Iteration,2,91,0.094126,16.882880
[MO833] Paramount Iteration,6,91,0.094183,16.883315
[MO833] Paramount Iteration,3,91,0.094215,16.883351
[MO833] Paramount Iteration,7,91,0.094422,16.883471
[MO833] Paramount Iteration,4,91,0.094225,16.883040
[MO833] Paramount Iteration,5,91,0.094382,16.883055
[MO833] Paramount Iteration,1,92,0.094310,16.977126
[MO833] Paramount Iteration,0,92,0.094497,16.977227
[MO833] Paramount Iteration,6,92,0.094103,16.977529
[MO833] Paramount Iteration,7,92,0.094083,16.977577
[MO833] Paramount Iteration,5,92,0.094039,16.977111
[MO833] Paramount Iteration,2,92,0.094872,16.977861
[MO833] Paramount Iteration,4,92,0.094239,16.977366
[MO833] Paramount Iteration,3,92,0.094934,16.978307
[MO833] Paramount Iteration,0,93,0.094890,17.072157
[MO833] Paramount Iteration,1,93,0.095144,17.072383
[MO833] Paramount Iteration,7,93,0.095066,17.072654
[MO833] Paramount Iteration,6,93,0.095149,17.072796
[MO833] Paramount Iteration,2,93,0.094933,17.072905
[MO833] Paramount Iteration,5,93,0.095239,17.072385
[MO833] Paramount Iteration,4,93,0.095051,17.072476
[MO833] Paramount Iteration,3,93,0.094866,17.073198
[MO833] Paramount Iteration,1,94,0.430434,17.502889
[MO833] Paramount Iteration,0,94,0.430728,17.502952
[MO833] Paramount Iteration,7,94,0.430613,17.503302
[MO833] Paramount Iteration,6,94,0.430563,17.503433
[MO833] Paramount Iteration,2,94,0.430394,17.503409
[MO833] Paramount Iteration,5,94,0.430553,17.502975
[MO833] Paramount Iteration,4,94,0.430621,17.503123
[MO833] Paramount Iteration,3,94,0.430556,17.503781
[MO833] Paramount Iteration,0,95,0.094021,17.596999
[MO833] Paramount Iteration,1,95,0.094228,17.597237
[MO833] Paramount Iteration,2,95,0.093882,17.597401
[MO833] Paramount Iteration,6,95,0.094182,17.597655
[MO833] Paramount Iteration,4,95,0.093882,17.597043
[MO833] Paramount Iteration,7,95,0.094547,17.597882
[MO833] Paramount Iteration,5,95,0.094323,17.597333
[MO833] Paramount Iteration,3,95,0.094285,17.598090
[MO833] Paramount Iteration,1,96,0.092949,17.690261
[MO833] Paramount Iteration,0,96,0.093222,17.690295
[MO833] Paramount Iteration,6,96,0.092933,17.690696
[MO833] Paramount Iteration,2,96,0.093182,17.690697
[MO833] Paramount Iteration,7,96,0.092977,17.690882
[MO833] Paramount Iteration,4,96,0.093184,17.690310
[MO833] Paramount Iteration,5,96,0.093141,17.690497
[MO833] Paramount Iteration,3,96,0.093130,17.691242
[MO833] Paramount Iteration,7,97,0.092753,17.783655
[MO833] Paramount Iteration,0,97,0.093246,17.783550
[MO833] Paramount Iteration,1,97,0.093284,17.783669
[MO833] Paramount Iteration,2,97,0.093230,17.784033
[MO833] Paramount Iteration,6,97,0.093341,17.784149
[MO833] Paramount Iteration,3,97,0.092891,17.784155
[MO833] Paramount Iteration,5,97,0.093284,17.783804
[MO833] Paramount Iteration,4,97,0.093508,17.783903
[MO833] Paramount Iteration,1,98,0.424872,18.208601
[MO833] Paramount Iteration,2,98,0.424638,18.208774
[MO833] Paramount Iteration,0,98,0.425084,18.208693
[MO833] Paramount Iteration,6,98,0.424909,18.209108
[MO833] Paramount Iteration,7,98,0.425522,18.209213
[MO833] Paramount Iteration,4,98,0.424681,18.208611
[MO833] Paramount Iteration,5,98,0.424798,18.208639
[MO833] Paramount Iteration,3,98,0.425172,18.209347
[MO833] Paramount Iteration,2,99,0.093380,18.302255
[MO833] Paramount Iteration,0,99,0.093394,18.302167
[MO833] Paramount Iteration,1,99,0.093435,18.302189
[MO833] Paramount Iteration,6,99,0.093275,18.302485
[MO833] Paramount Iteration,7,99,0.093251,18.302482
[MO833] Paramount Iteration,3,99,0.093260,18.302635
[MO833] Paramount Iteration,4,99,0.093396,18.302095
[MO833] Paramount Iteration,5,99,0.093471,18.302119
     100   0.97370709   0.44128683    20.501842    22.403689    4.6861494 
[MO833] Paramount Iteration,4,100,0.124641,18.426819
[MO833] Paramount Iteration,1,100,0.124942,18.427277
[MO833] Paramount Iteration,6,100,0.124925,18.427498
[MO833] Paramount Iteration,2,100,0.125124,18.427474
[MO833] Paramount Iteration,5,100,0.124697,18.426825
[MO833] Paramount Iteration,0,100,0.125115,18.427332
[MO833] Paramount Iteration,7,100,0.124992,18.427501
[MO833] Paramount Iteration,3,100,0.124766,18.427422
Loop time of 17.321 on 8 procs for 100 steps with 2048000 atoms

Performance: 5985.809 tau/day, 5.773 timesteps/s
97.5% CPU use with 8 MPI tasks x 1 OpenMP threads

MPI task timing breakdown:
Section |  min time  |  avg time  |  max time  |%varavg| %total
---------------------------------------------------------------
Pair    | 3.7261     | 3.8482     | 3.9527     |   3.7 | 22.22
Bond    | 1.8588     | 1.918      | 1.9655     |   2.4 | 11.07
Neigh   | 7.4715     | 7.4854     | 7.5006     |   0.3 | 43.22
Comm    | 1.2915     | 1.4254     | 1.5963     |   8.4 |  8.23
Output  | 0.0018437  | 0.0020922  | 0.0022645  |   0.3 |  0.01
Modify  | 2.0247     | 2.0756     | 2.1299     |   2.0 | 11.98
Other   |            | 0.5662     |            |       |  3.27

Nlocal:    256000 ave 256061 max 255948 min
Histogram: 2 0 0 2 0 1 1 1 0 1
Nghost:    36331.9 ave 36383 max 36254 min
Histogram: 1 0 0 1 1 1 0 1 2 1
Neighs:    1.24622e+06 ave 1.24686e+06 max 1.24541e+06 min
Histogram: 1 0 2 0 1 0 0 1 1 2

Total # of neighbors = 9969775
Ave neighs/atom = 4.86805
Ave special neighs/atom = 1.98
Neighbor list builds = 25
Dangerous builds = 0
Total wall time: 0:00:18
[MO833] Beta,0,0.066964
[MO833] PI avg,0,0.173209,100
[MO833] Total time,18.480798
[MO833] Beta,4,0.066975
[MO833] PI avg,4,0.173205,100
[MO833] Beta,6,0.067013
[MO833] Beta,2,0.067039
[MO833] PI avg,6,0.173210,100
[MO833] PI avg,2,0.173211,100
[MO833] Beta,7,0.067032
[MO833] PI avg,7,0.173210,100
[MO833] Beta,3,0.067041
[MO833] PI avg,3,0.173210,100
[MO833] Beta,1,0.067052
[MO833] PI avg,1,0.173209,100
[MO833] Beta,5,0.067063
[MO833] PI avg,5,0.173205,100
