LAMMPS (3 Mar 2020)
OMP_NUM_THREADS environment is not set. Defaulting to 1 thread. (src/comm.cpp:94)
  using 1 OpenMP thread(s) per MPI task
Reading data file ...
  orthogonal box = (-16.796 -16.796 -16.796) to (16.796 16.796 16.796)
  2 by 2 by 4 MPI processor grid
  reading atoms ...
  32000 atoms
  reading velocities ...
  32000 velocities
  scanning bonds ...
  1 = max bonds/atom
  reading bonds ...
  31680 bonds
Finding 1-2 1-3 1-4 neighbors ...
  special bond factors lj:   0          1          1         
  special bond factors coul: 0          1          1         
  2 = max # of 1-2 neighbors
  2 = max # of special neighbors
  special bonds CPU = 0.00820231 secs
  read_data CPU = 0.194446 secs
Replicating atoms ...
  orthogonal box = (-16.796 -16.796 -16.796) to (117.572 117.572 117.572)
  2 by 2 by 4 MPI processor grid
  2048000 atoms
  2027520 bonds
Finding 1-2 1-3 1-4 neighbors ...
  special bond factors lj:   0          1          1         
  special bond factors coul: 0          1          1         
  2 = max # of 1-2 neighbors
  2 = max # of special neighbors
  special bonds CPU = 0.0957813 secs
  replicate CPU = 0.224768 secs
Neighbor list info ...
  update every 1 steps, delay 1 steps, check yes
  max neighbors/atom: 2000, page size: 100000
  master list distance cutoff = 1.52
  ghost atom cutoff = 1.52
  binsize = 0.76, bins = 177 177 177
  1 neighbor lists, perpetual/occasional/extra = 1 0 0
  (1) pair lj/cut, perpetual
      attributes: half, newton on
      pair build: half/bin/newton
      stencil: half/bin/3d/newton
      bin: standard
Setting up Verlet run ...
  Unit style    : lj
  Current step  : 0
  Time step     : 0.012
WARNING: Communication cutoff 1.52 is shorter than a bond length based estimate of 1.855. This may lead to errors. (src/comm.cpp:686)
Per MPI rank memory allocation (min/avg/max) = 50.41 | 50.41 | 50.41 Mbytes
Step Temp E_pair E_mol TotEng Press 
       0   0.97026787   0.44484087    20.494523    22.394765    4.6721833 
[MO833] Paramount Iteration,10,1,0.041493,0.917377
[MO833] Paramount Iteration,6,1,0.041743,0.917568
[MO833] Paramount Iteration,11,1,0.041812,0.917702
[MO833] Paramount Iteration,13,1,0.041773,0.917728
[MO833] Paramount Iteration,2,1,0.041906,0.917834
[MO833] Paramount Iteration,14,1,0.042078,0.917806
[MO833] Paramount Iteration,7,1,0.042160,0.917983
[MO833] Paramount Iteration,3,1,0.042129,0.918056
[MO833] Paramount Iteration,5,1,0.042166,0.914984
[MO833] Paramount Iteration,9,1,0.042418,0.918268
[MO833] Paramount Iteration,8,1,0.042599,0.918448
[MO833] Paramount Iteration,15,1,0.042602,0.918331
[MO833] Paramount Iteration,0,1,0.042709,0.918515
[MO833] Paramount Iteration,12,1,0.042662,0.918620
[MO833] Paramount Iteration,4,1,0.042860,0.915678
[MO833] Paramount Iteration,1,1,0.043287,0.919095
[MO833] Paramount Iteration,11,2,0.038485,0.956248
[MO833] Paramount Iteration,10,2,0.038946,0.956394
[MO833] Paramount Iteration,3,2,0.038404,0.956488
[MO833] Paramount Iteration,7,2,0.038578,0.956591
[MO833] Paramount Iteration,2,2,0.038778,0.956701
[MO833] Paramount Iteration,6,2,0.039144,0.956811
[MO833] Paramount Iteration,13,2,0.038971,0.956794
[MO833] Paramount Iteration,5,2,0.038770,0.953858
[MO833] Paramount Iteration,0,2,0.038498,0.957072
[MO833] Paramount Iteration,8,2,0.038649,0.957138
[MO833] Paramount Iteration,9,2,0.038836,0.957149
[MO833] Paramount Iteration,12,2,0.038688,0.957366
[MO833] Paramount Iteration,4,2,0.038469,0.954217
[MO833] Paramount Iteration,15,2,0.039228,0.957616
[MO833] Paramount Iteration,1,2,0.038727,0.957896
[MO833] Paramount Iteration,14,2,0.040125,0.957973
[MO833] Paramount Iteration,13,3,0.040335,0.997220
[MO833] Paramount Iteration,10,3,0.040930,0.997366
[MO833] Paramount Iteration,11,3,0.041171,0.997478
[MO833] Paramount Iteration,5,3,0.040504,0.994447
[MO833] Paramount Iteration,6,3,0.040800,0.997649
[MO833] Paramount Iteration,2,3,0.041031,0.997769
[MO833] Paramount Iteration,7,3,0.041196,0.997816
[MO833] Paramount Iteration,9,3,0.040650,0.997813
[MO833] Paramount Iteration,3,3,0.041359,0.997877
[MO833] Paramount Iteration,12,3,0.040619,0.998031
[MO833] Paramount Iteration,0,3,0.040981,0.998127
[MO833] Paramount Iteration,1,3,0.040175,0.998139
[MO833] Paramount Iteration,8,3,0.041003,0.998247
[MO833] Paramount Iteration,4,3,0.040857,0.995142
[MO833] Paramount Iteration,14,3,0.040172,0.998163
[MO833] Paramount Iteration,15,3,0.040687,0.998383
[MO833] Paramount Iteration,13,4,0.196790,1.194088
[MO833] Paramount Iteration,10,4,0.196756,1.194186
[MO833] Paramount Iteration,11,4,0.196707,1.194202
[MO833] Paramount Iteration,2,4,0.196412,1.194263
[MO833] Paramount Iteration,3,4,0.196391,1.194287
[MO833] Paramount Iteration,9,4,0.196565,1.194414
[MO833] Paramount Iteration,6,4,0.196709,1.194446
[MO833] Paramount Iteration,5,4,0.196797,1.191329
[MO833] Paramount Iteration,0,4,0.196305,1.194493
[MO833] Paramount Iteration,7,4,0.196640,1.194476
[MO833] Paramount Iteration,1,4,0.196481,1.194628
[MO833] Paramount Iteration,8,4,0.196392,1.194686
[MO833] Paramount Iteration,14,4,0.196359,1.194556
[MO833] Paramount Iteration,12,4,0.196700,1.194778
[MO833] Paramount Iteration,15,4,0.196261,1.194685
[MO833] Paramount Iteration,4,4,0.196798,1.192010
[MO833] Paramount Iteration,10,5,0.041627,1.235876
[MO833] Paramount Iteration,13,5,0.041854,1.236053
[MO833] Paramount Iteration,11,5,0.041863,1.236078
[MO833] Paramount Iteration,6,5,0.041559,1.236109
[MO833] Paramount Iteration,2,5,0.041810,1.236165
[MO833] Paramount Iteration,3,5,0.042030,1.236325
[MO833] Paramount Iteration,5,5,0.041819,1.233184
[MO833] Paramount Iteration,0,5,0.041892,1.236436
[MO833] Paramount Iteration,1,5,0.041701,1.236458
[MO833] Paramount Iteration,9,5,0.042016,1.236464
[MO833] Paramount Iteration,14,5,0.041736,1.236327
[MO833] Paramount Iteration,8,5,0.041942,1.236669
[MO833] Paramount Iteration,7,5,0.042179,1.236663
[MO833] Paramount Iteration,12,5,0.042045,1.236869
[MO833] Paramount Iteration,4,5,0.041851,1.233917
[MO833] Paramount Iteration,15,5,0.042203,1.236926
[MO833] Paramount Iteration,10,6,0.041594,1.277532
[MO833] Paramount Iteration,11,6,0.041777,1.277874
[MO833] Paramount Iteration,6,6,0.041717,1.277927
[MO833] Paramount Iteration,2,6,0.041664,1.277916
[MO833] Paramount Iteration,13,6,0.041926,1.278009
[MO833] Paramount Iteration,14,6,0.041580,1.277969
[MO833] Paramount Iteration,3,6,0.041897,1.278241
[MO833] Paramount Iteration,7,6,0.041711,1.278395
[MO833] Paramount Iteration,0,6,0.041937,1.278435
[MO833] Paramount Iteration,9,6,0.041978,1.278473
[MO833] Paramount Iteration,5,6,0.042134,1.275353
[MO833] Paramount Iteration,15,6,0.041513,1.278487
[MO833] Paramount Iteration,8,6,0.042040,1.278744
[MO833] Paramount Iteration,1,6,0.042341,1.278806
[MO833] Paramount Iteration,12,6,0.041996,1.278912
[MO833] Paramount Iteration,4,6,0.042109,1.276077
[MO833] Paramount Iteration,10,7,0.042996,1.320592
[MO833] Paramount Iteration,2,7,0.042822,1.320820
[MO833] Paramount Iteration,11,7,0.043039,1.320931
[MO833] Paramount Iteration,6,7,0.042964,1.320974
[MO833] Paramount Iteration,13,7,0.042971,1.321008
[MO833] Paramount Iteration,3,7,0.042877,1.321138
[MO833] Paramount Iteration,14,7,0.043010,1.321011
[MO833] Paramount Iteration,9,7,0.042654,1.321161
[MO833] Paramount Iteration,0,7,0.042827,1.321319
[MO833] Paramount Iteration,5,7,0.042798,1.318189
[MO833] Paramount Iteration,1,7,0.042466,1.321331
[MO833] Paramount Iteration,7,7,0.043031,1.321447
[MO833] Paramount Iteration,8,7,0.042818,1.321605
[MO833] Paramount Iteration,15,7,0.042964,1.321501
[MO833] Paramount Iteration,12,7,0.042714,1.321666
[MO833] Paramount Iteration,4,7,0.042739,1.318888
[MO833] Paramount Iteration,10,8,0.198218,1.518871
[MO833] Paramount Iteration,2,8,0.198251,1.519148
[MO833] Paramount Iteration,13,8,0.198114,1.519151
[MO833] Paramount Iteration,11,8,0.198238,1.519188
[MO833] Paramount Iteration,6,8,0.198120,1.519179
[MO833] Paramount Iteration,14,8,0.198214,1.519256
[MO833] Paramount Iteration,3,8,0.198264,1.519422
[MO833] Paramount Iteration,7,8,0.198032,1.519500
[MO833] Paramount Iteration,9,8,0.198339,1.519531
[MO833] Paramount Iteration,5,8,0.198243,1.516472
[MO833] Paramount Iteration,0,8,0.198261,1.519640
[MO833] Paramount Iteration,8,8,0.198053,1.519704
[MO833] Paramount Iteration,15,8,0.198100,1.519647
[MO833] Paramount Iteration,12,8,0.198138,1.519846
[MO833] Paramount Iteration,1,8,0.198595,1.519934
[MO833] Paramount Iteration,4,8,0.198123,1.517063
[MO833] Paramount Iteration,10,9,0.043603,1.562537
[MO833] Paramount Iteration,6,9,0.043532,1.562790
[MO833] Paramount Iteration,13,9,0.043618,1.562798
[MO833] Paramount Iteration,11,9,0.043637,1.562855
[MO833] Paramount Iteration,2,9,0.043628,1.562857
[MO833] Paramount Iteration,3,9,0.043579,1.563020
[MO833] Paramount Iteration,14,9,0.043664,1.562954
[MO833] Paramount Iteration,5,9,0.043450,1.559959
[MO833] Paramount Iteration,7,9,0.043643,1.563163
[MO833] Paramount Iteration,0,9,0.043539,1.563228
[MO833] Paramount Iteration,1,9,0.043258,1.563260
[MO833] Paramount Iteration,9,9,0.043701,1.563263
[MO833] Paramount Iteration,8,9,0.043708,1.563448
[MO833] Paramount Iteration,15,9,0.043669,1.563361
[MO833] Paramount Iteration,12,9,0.043656,1.563545
[MO833] Paramount Iteration,4,9,0.043450,1.560582
[MO833] Paramount Iteration,10,10,0.043097,1.605698
[MO833] Paramount Iteration,11,10,0.042870,1.605744
[MO833] Paramount Iteration,2,10,0.042999,1.605935
[MO833] Paramount Iteration,3,10,0.042934,1.605972
[MO833] Paramount Iteration,13,10,0.043199,1.606027
[MO833] Paramount Iteration,6,10,0.043292,1.606163
[MO833] Paramount Iteration,7,10,0.043021,1.606205
[MO833] Paramount Iteration,8,10,0.042838,1.606324
[MO833] Paramount Iteration,9,10,0.043035,1.606330
[MO833] Paramount Iteration,14,10,0.043288,1.606276
[MO833] Paramount Iteration,5,10,0.043277,1.603271
[MO833] Paramount Iteration,15,10,0.042872,1.606277
[MO833] Paramount Iteration,1,10,0.043239,1.606508
[MO833] Paramount Iteration,12,10,0.042977,1.606570
[MO833] Paramount Iteration,0,10,0.043354,1.606645
[MO833] Paramount Iteration,4,10,0.043003,1.603636
[MO833] Paramount Iteration,10,11,0.043481,1.649244
[MO833] Paramount Iteration,2,11,0.043534,1.649549
[MO833] Paramount Iteration,11,11,0.043946,1.649698
[MO833] Paramount Iteration,6,11,0.043460,1.649723
[MO833] Paramount Iteration,13,11,0.043748,1.649805
[MO833] Paramount Iteration,3,11,0.043891,1.649872
[MO833] Paramount Iteration,14,11,0.043447,1.649753
[MO833] Paramount Iteration,9,11,0.043788,1.650136
[MO833] Paramount Iteration,5,11,0.043778,1.647083
[MO833] Paramount Iteration,7,11,0.044059,1.650272
[MO833] Paramount Iteration,0,11,0.043587,1.650276
[MO833] Paramount Iteration,15,11,0.043941,1.650304
[MO833] Paramount Iteration,8,11,0.044029,1.650443
[MO833] Paramount Iteration,1,11,0.043936,1.650552
[MO833] Paramount Iteration,12,11,0.044119,1.650728
[MO833] Paramount Iteration,4,11,0.044033,1.647714
[MO833] Paramount Iteration,10,12,0.203407,1.852712
[MO833] Paramount Iteration,13,12,0.202876,1.852710
[MO833] Paramount Iteration,11,12,0.203129,1.852848
[MO833] Paramount Iteration,1,12,0.202429,1.852999
[MO833] Paramount Iteration,6,12,0.203184,1.852993
[MO833] Paramount Iteration,2,12,0.203388,1.852999
[MO833] Paramount Iteration,7,12,0.202807,1.853101
[MO833] Paramount Iteration,3,12,0.203174,1.853065
[MO833] Paramount Iteration,5,12,0.202948,1.850068
[MO833] Paramount Iteration,0,12,0.202945,1.853277
[MO833] Paramount Iteration,9,12,0.203122,1.853290
[MO833] Paramount Iteration,14,12,0.203381,1.853168
[MO833] Paramount Iteration,8,12,0.202944,1.853443
[MO833] Paramount Iteration,15,12,0.202984,1.853338
[MO833] Paramount Iteration,12,12,0.202748,1.853525
[MO833] Paramount Iteration,4,12,0.203046,1.850811
[MO833] Paramount Iteration,10,13,0.044168,1.896944
[MO833] Paramount Iteration,11,13,0.044384,1.897252
[MO833] Paramount Iteration,6,13,0.044215,1.897292
[MO833] Paramount Iteration,2,13,0.044274,1.897352
[MO833] Paramount Iteration,14,13,0.044113,1.897311
[MO833] Paramount Iteration,13,13,0.044793,1.897534
[MO833] Paramount Iteration,3,13,0.044530,1.897611
[MO833] Paramount Iteration,7,13,0.044639,1.897758
[MO833] Paramount Iteration,9,13,0.044486,1.897809
[MO833] Paramount Iteration,5,13,0.044568,1.894674
[MO833] Paramount Iteration,15,13,0.044413,1.897788
[MO833] Paramount Iteration,0,13,0.044638,1.897952
[MO833] Paramount Iteration,1,13,0.044965,1.898133
[MO833] Paramount Iteration,8,13,0.044773,1.898251
[MO833] Paramount Iteration,12,13,0.044708,1.898279
[MO833] Paramount Iteration,4,13,0.044425,1.895309
[MO833] Paramount Iteration,13,14,0.043804,1.941369
[MO833] Paramount Iteration,10,14,0.044409,1.941412
[MO833] Paramount Iteration,11,14,0.044155,1.941425
[MO833] Paramount Iteration,6,14,0.044197,1.941573
[MO833] Paramount Iteration,7,14,0.043887,1.941667
[MO833] Paramount Iteration,2,14,0.044188,1.941631
[MO833] Paramount Iteration,3,14,0.044043,1.941673
[MO833] Paramount Iteration,9,14,0.043988,1.941832
[MO833] Paramount Iteration,5,14,0.043982,1.938690
[MO833] Paramount Iteration,14,14,0.044378,1.941719
[MO833] Paramount Iteration,0,14,0.043899,1.941908
[MO833] Paramount Iteration,15,14,0.044028,1.941860
[MO833] Paramount Iteration,8,14,0.043698,1.942012
[MO833] Paramount Iteration,1,14,0.043927,1.942080
[MO833] Paramount Iteration,12,14,0.043819,1.942142
[MO833] Paramount Iteration,4,14,0.043972,1.939346
[MO833] Paramount Iteration,10,15,0.043962,1.985444
[MO833] Paramount Iteration,6,15,0.043974,1.985634
[MO833] Paramount Iteration,13,15,0.044239,1.985637
[MO833] Paramount Iteration,11,15,0.044222,1.985668
[MO833] Paramount Iteration,2,15,0.043938,1.985660
[MO833] Paramount Iteration,14,15,0.043890,1.985640
[MO833] Paramount Iteration,3,15,0.044216,1.985898
[MO833] Paramount Iteration,0,15,0.044062,1.986039
[MO833] Paramount Iteration,9,15,0.044178,1.986042
[MO833] Paramount Iteration,1,15,0.043950,1.986048
[MO833] Paramount Iteration,7,15,0.044418,1.986102
[MO833] Paramount Iteration,8,15,0.044117,1.986167
[MO833] Paramount Iteration,5,15,0.044241,1.982967
[MO833] Paramount Iteration,15,15,0.044176,1.986075
[MO833] Paramount Iteration,12,15,0.044147,1.986334
[MO833] Paramount Iteration,4,15,0.044144,1.983561
[MO833] Paramount Iteration,10,16,0.205516,2.191020
[MO833] Paramount Iteration,6,16,0.205547,2.191268
[MO833] Paramount Iteration,2,16,0.205574,2.191301
[MO833] Paramount Iteration,11,16,0.205671,2.191357
[MO833] Paramount Iteration,13,16,0.205795,2.191464
[MO833] Paramount Iteration,3,16,0.205597,2.191514
[MO833] Paramount Iteration,14,16,0.205719,2.191388
[MO833] Paramount Iteration,7,16,0.205477,2.191599
[MO833] Paramount Iteration,0,16,0.205724,2.191824
[MO833] Paramount Iteration,15,16,0.205663,2.191778
[MO833] Paramount Iteration,8,16,0.205776,2.191978
[MO833] Paramount Iteration,9,16,0.205961,2.192034
[MO833] Paramount Iteration,5,16,0.205856,2.188859
[MO833] Paramount Iteration,12,16,0.205740,2.192114
[MO833] Paramount Iteration,1,16,0.206262,2.192321
[MO833] Paramount Iteration,4,16,0.205693,2.189308
[MO833] Paramount Iteration,11,17,0.044218,2.235594
[MO833] Paramount Iteration,10,17,0.044701,2.235787
[MO833] Paramount Iteration,3,17,0.044292,2.235825
[MO833] Paramount Iteration,7,17,0.044452,2.236070
[MO833] Paramount Iteration,2,17,0.044715,2.236080
[MO833] Paramount Iteration,13,17,0.044557,2.236049
[MO833] Paramount Iteration,0,17,0.044403,2.236289
[MO833] Paramount Iteration,15,17,0.044377,2.236197
[MO833] Paramount Iteration,6,17,0.045028,2.236379
[MO833] Paramount Iteration,8,17,0.044292,2.236372
[MO833] Paramount Iteration,9,17,0.044403,2.236446
[MO833] Paramount Iteration,14,17,0.045001,2.236419
[MO833] Paramount Iteration,5,17,0.044576,2.233470
[MO833] Paramount Iteration,12,17,0.044640,2.236795
[MO833] Paramount Iteration,1,17,0.044511,2.236852
[MO833] Paramount Iteration,4,17,0.044442,2.233800
[MO833] Paramount Iteration,10,18,0.044796,2.280614
[MO833] Paramount Iteration,6,18,0.044426,2.280846
[MO833] Paramount Iteration,11,18,0.045278,2.280901
[MO833] Paramount Iteration,2,18,0.044791,2.280920
[MO833] Paramount Iteration,13,18,0.044954,2.281034
[MO833] Paramount Iteration,14,18,0.044507,2.280944
[MO833] Paramount Iteration,7,18,0.045040,2.281141
[MO833] Paramount Iteration,3,18,0.045299,2.281155
[MO833] Paramount Iteration,15,18,0.045010,2.281289
[MO833] Paramount Iteration,5,18,0.044851,2.278358
[MO833] Paramount Iteration,9,18,0.045123,2.281586
[MO833] Paramount Iteration,0,18,0.045285,2.281635
[MO833] Paramount Iteration,12,18,0.044915,2.281757
[MO833] Paramount Iteration,8,18,0.045276,2.281771
[MO833] Paramount Iteration,1,18,0.044887,2.281755
[MO833] Paramount Iteration,4,18,0.045055,2.278903
[MO833] Paramount Iteration,10,19,0.045102,2.325776
[MO833] Paramount Iteration,11,19,0.045320,2.326240
[MO833] Paramount Iteration,6,19,0.045318,2.326246
[MO833] Paramount Iteration,2,19,0.045209,2.326212
[MO833] Paramount Iteration,13,19,0.045188,2.326251
[MO833] Paramount Iteration,14,19,0.045333,2.326306
[MO833] Paramount Iteration,3,19,0.045400,2.326575
[MO833] Paramount Iteration,7,19,0.045507,2.326680
[MO833] Paramount Iteration,5,19,0.045215,2.323612
[MO833] Paramount Iteration,9,19,0.045168,2.326786
[MO833] Paramount Iteration,15,19,0.045441,2.326773
[MO833] Paramount Iteration,0,19,0.045177,2.326862
[MO833] Paramount Iteration,12,19,0.045159,2.326963
[MO833] Paramount Iteration,8,19,0.045224,2.327033
[MO833] Paramount Iteration,1,19,0.045299,2.327143
[MO833] Paramount Iteration,4,19,0.045271,2.324228
[MO833] Paramount Iteration,10,20,0.206596,2.532429
[MO833] Paramount Iteration,13,20,0.206208,2.532487
[MO833] Paramount Iteration,11,20,0.206287,2.532547
[MO833] Paramount Iteration,6,20,0.206356,2.532686
[MO833] Paramount Iteration,2,20,0.206399,2.532695
[MO833] Paramount Iteration,3,20,0.206160,2.532755
[MO833] Paramount Iteration,7,20,0.206097,2.532799
[MO833] Paramount Iteration,5,20,0.206210,2.529860
[MO833] Paramount Iteration,0,20,0.206227,2.533139
[MO833] Paramount Iteration,1,20,0.205971,2.533132
[MO833] Paramount Iteration,12,20,0.206189,2.533193
[MO833] Paramount Iteration,9,20,0.206373,2.533191
[MO833] Paramount Iteration,8,20,0.206124,2.533213
[MO833] Paramount Iteration,14,20,0.206798,2.533132
[MO833] Paramount Iteration,15,20,0.206480,2.533293
[MO833] Paramount Iteration,4,20,0.206227,2.530510
[MO833] Paramount Iteration,10,21,0.045097,2.577590
[MO833] Paramount Iteration,11,21,0.045260,2.577825
[MO833] Paramount Iteration,6,21,0.045048,2.577817
[MO833] Paramount Iteration,13,21,0.045428,2.577946
[MO833] Paramount Iteration,2,21,0.045162,2.577959
[MO833] Paramount Iteration,14,21,0.044709,2.577875
[MO833] Paramount Iteration,7,21,0.045357,2.578174
[MO833] Paramount Iteration,3,21,0.045448,2.578213
[MO833] Paramount Iteration,5,21,0.045231,2.575129
[MO833] Paramount Iteration,15,21,0.044966,2.578294
[MO833] Paramount Iteration,9,21,0.045262,2.578486
[MO833] Paramount Iteration,0,21,0.045400,2.578593
[MO833] Paramount Iteration,8,21,0.045332,2.578663
[MO833] Paramount Iteration,12,21,0.045478,2.578713
[MO833] Paramount Iteration,4,21,0.045147,2.575727
[MO833] Paramount Iteration,1,21,0.045812,2.578966
[MO833] Paramount Iteration,10,22,0.044367,2.622020
[MO833] Paramount Iteration,11,22,0.044456,2.622300
[MO833] Paramount Iteration,6,22,0.044373,2.622269
[MO833] Paramount Iteration,2,22,0.044345,2.622389
[MO833] Paramount Iteration,13,22,0.044423,2.622399
[MO833] Paramount Iteration,3,22,0.044241,2.622472
[MO833] Paramount Iteration,7,22,0.044325,2.622519
[MO833] Paramount Iteration,14,22,0.044563,2.622469
[MO833] Paramount Iteration,5,22,0.044369,2.619533
[MO833] Paramount Iteration,9,22,0.044189,2.622708
[MO833] Paramount Iteration,0,22,0.044153,2.622804
[MO833] Paramount Iteration,8,22,0.044173,2.622874
[MO833] Paramount Iteration,15,22,0.044446,2.622783
[MO833] Paramount Iteration,12,22,0.044275,2.623035
[MO833] Paramount Iteration,1,22,0.044042,2.623025
[MO833] Paramount Iteration,4,22,0.044385,2.620160
[MO833] Paramount Iteration,1,23,0.043966,2.667084
[MO833] Paramount Iteration,11,23,0.044789,2.667109
[MO833] Paramount Iteration,13,23,0.044785,2.667216
[MO833] Paramount Iteration,10,23,0.045170,2.667251
[MO833] Paramount Iteration,3,23,0.044915,2.667404
[MO833] Paramount Iteration,15,23,0.044556,2.667380
[MO833] Paramount Iteration,0,23,0.044730,2.667589
[MO833] Paramount Iteration,7,23,0.045047,2.667585
[MO833] Paramount Iteration,2,23,0.045144,2.667614
[MO833] Paramount Iteration,6,23,0.045348,2.667696
[MO833] Paramount Iteration,9,23,0.044926,2.667670
[MO833] Paramount Iteration,5,23,0.044896,2.664464
[MO833] Paramount Iteration,14,23,0.045048,2.667548
[MO833] Paramount Iteration,12,23,0.044880,2.667961
[MO833] Paramount Iteration,8,23,0.045082,2.667991
[MO833] Paramount Iteration,4,23,0.044890,2.665100
[MO833] Paramount Iteration,11,24,0.207437,2.874575
[MO833] Paramount Iteration,13,24,0.207541,2.874786
[MO833] Paramount Iteration,10,24,0.207527,2.874833
[MO833] Paramount Iteration,3,24,0.207372,2.874806
[MO833] Paramount Iteration,7,24,0.207284,2.874899
[MO833] Paramount Iteration,15,24,0.207461,2.874917
[MO833] Paramount Iteration,6,24,0.207447,2.875185
[MO833] Paramount Iteration,2,24,0.207522,2.875175
[MO833] Paramount Iteration,5,24,0.207533,2.872033
[MO833] Paramount Iteration,0,24,0.207630,2.875259
[MO833] Paramount Iteration,14,24,0.207654,2.875220
[MO833] Paramount Iteration,9,24,0.207682,2.875388
[MO833] Paramount Iteration,8,24,0.207469,2.875531
[MO833] Paramount Iteration,12,24,0.207561,2.875562
[MO833] Paramount Iteration,1,24,0.208570,2.875685
[MO833] Paramount Iteration,4,24,0.207549,2.872699
[MO833] Paramount Iteration,10,25,0.044682,2.919550
[MO833] Paramount Iteration,11,25,0.044941,2.919543
[MO833] Paramount Iteration,13,25,0.044944,2.919760
[MO833] Paramount Iteration,6,25,0.044557,2.919782
[MO833] Paramount Iteration,3,25,0.044931,2.919767
[MO833] Paramount Iteration,7,25,0.044862,2.919791
[MO833] Paramount Iteration,2,25,0.044731,2.919946
[MO833] Paramount Iteration,15,25,0.044994,2.919981
[MO833] Paramount Iteration,5,25,0.044911,2.916980
[MO833] Paramount Iteration,14,25,0.044778,2.920018
[MO833] Paramount Iteration,9,25,0.044730,2.920151
[MO833] Paramount Iteration,0,25,0.044861,2.920184
[MO833] Paramount Iteration,8,25,0.044605,2.920174
[MO833] Paramount Iteration,12,25,0.044798,2.920404
[MO833] Paramount Iteration,4,25,0.044662,2.917416
[MO833] Paramount Iteration,1,25,0.044836,2.920542
[MO833] Paramount Iteration,13,26,0.044348,2.964135
[MO833] Paramount Iteration,10,26,0.044584,2.964192
[MO833] Paramount Iteration,6,26,0.044362,2.964227
[MO833] Paramount Iteration,11,26,0.044658,2.964229
[MO833] Paramount Iteration,2,26,0.044361,2.964344
[MO833] Paramount Iteration,3,26,0.044663,2.964460
[MO833] Paramount Iteration,5,26,0.044315,2.961327
[MO833] Paramount Iteration,7,26,0.044703,2.964508
[MO833] Paramount Iteration,14,26,0.044443,2.964471
[MO833] Paramount Iteration,0,26,0.044374,2.964623
[MO833] Paramount Iteration,9,26,0.044462,2.964642
[MO833] Paramount Iteration,15,26,0.044538,2.964602
[MO833] Paramount Iteration,1,26,0.044133,2.964752
[MO833] Paramount Iteration,12,26,0.044434,2.964881
[MO833] Paramount Iteration,8,26,0.044718,2.964995
[MO833] Paramount Iteration,4,26,0.044544,2.962019
[MO833] Paramount Iteration,6,27,0.045121,3.009429
[MO833] Paramount Iteration,2,27,0.045010,3.009440
[MO833] Paramount Iteration,14,27,0.044887,3.009388
[MO833] Paramount Iteration,10,27,0.045234,3.009496
[MO833] Paramount Iteration,13,27,0.045344,3.009524
[MO833] Paramount Iteration,11,27,0.045281,3.009518
[MO833] Paramount Iteration,3,27,0.045269,3.009764
[MO833] Paramount Iteration,5,27,0.045377,3.006741
[MO833] Paramount Iteration,7,27,0.045413,3.009941
[MO833] Paramount Iteration,1,27,0.045142,3.009910
[MO833] Paramount Iteration,9,27,0.045326,3.010001
[MO833] Paramount Iteration,15,27,0.045314,3.009949
[MO833] Paramount Iteration,0,27,0.045388,3.010072
[MO833] Paramount Iteration,12,27,0.045457,3.010379
[MO833] Paramount Iteration,8,27,0.045350,3.010410
[MO833] Paramount Iteration,4,27,0.045269,3.007342
[MO833] Paramount Iteration,10,28,0.206763,3.216319
[MO833] Paramount Iteration,11,28,0.207039,3.216564
[MO833] Paramount Iteration,6,28,0.207136,3.216648
[MO833] Paramount Iteration,2,28,0.207138,3.216656
[MO833] Paramount Iteration,13,28,0.207130,3.216684
[MO833] Paramount Iteration,3,28,0.207048,3.216832
[MO833] Paramount Iteration,7,28,0.206935,3.216897
[MO833] Paramount Iteration,9,28,0.206933,3.216967
[MO833] Paramount Iteration,1,28,0.206970,3.216989
[MO833] Paramount Iteration,5,28,0.207080,3.213854
[MO833] Paramount Iteration,14,28,0.207558,3.216975
[MO833] Paramount Iteration,0,28,0.207033,3.217124
[MO833] Paramount Iteration,15,28,0.207254,3.217247
[MO833] Paramount Iteration,8,28,0.206910,3.217368
[MO833] Paramount Iteration,12,28,0.207001,3.217424
[MO833] Paramount Iteration,4,28,0.207232,3.214622
[MO833] Paramount Iteration,10,29,0.045605,3.261986
[MO833] Paramount Iteration,13,29,0.045355,3.262068
[MO833] Paramount Iteration,11,29,0.045427,3.262010
[MO833] Paramount Iteration,6,29,0.045449,3.262174
[MO833] Paramount Iteration,7,29,0.045259,3.262177
[MO833] Paramount Iteration,5,29,0.045284,3.259173
[MO833] Paramount Iteration,2,29,0.045599,3.262336
[MO833] Paramount Iteration,15,29,0.044979,3.262266
[MO833] Paramount Iteration,3,29,0.045480,3.262331
[MO833] Paramount Iteration,14,29,0.045319,3.262326
[MO833] Paramount Iteration,9,29,0.045520,3.262518
[MO833] Paramount Iteration,8,29,0.045225,3.262657
[MO833] Paramount Iteration,0,29,0.045470,3.262619
[MO833] Paramount Iteration,1,29,0.045541,3.262642
[MO833] Paramount Iteration,12,29,0.045368,3.262837
[MO833] Paramount Iteration,4,29,0.045113,3.259786
[MO833] Paramount Iteration,10,30,0.044839,3.306887
[MO833] Paramount Iteration,11,30,0.045326,3.307344
[MO833] Paramount Iteration,2,30,0.044886,3.307318
[MO833] Paramount Iteration,14,30,0.044915,3.307250
[MO833] Paramount Iteration,6,30,0.045125,3.307379
[MO833] Paramount Iteration,13,30,0.045279,3.307378
[MO833] Paramount Iteration,3,30,0.045250,3.307608
[MO833] Paramount Iteration,7,30,0.045548,3.307745
[MO833] Paramount Iteration,5,30,0.045311,3.304572
[MO833] Paramount Iteration,9,30,0.045215,3.307764
[MO833] Paramount Iteration,15,30,0.045350,3.307698
[MO833] Paramount Iteration,0,30,0.045220,3.307890
[MO833] Paramount Iteration,1,30,0.045295,3.308007
[MO833] Paramount Iteration,8,30,0.045382,3.308072
[MO833] Paramount Iteration,12,30,0.045192,3.308074
[MO833] Paramount Iteration,4,30,0.045323,3.305135
[MO833] Paramount Iteration,10,31,0.045779,3.352728
[MO833] Paramount Iteration,11,31,0.045713,3.353076
[MO833] Paramount Iteration,13,31,0.045667,3.353074
[MO833] Paramount Iteration,2,31,0.045688,3.353088
[MO833] Paramount Iteration,14,31,0.045739,3.353020
[MO833] Paramount Iteration,6,31,0.045708,3.353173
[MO833] Paramount Iteration,3,31,0.045774,3.353401
[MO833] Paramount Iteration,5,31,0.045606,3.350261
[MO833] Paramount Iteration,9,31,0.045665,3.353462
[MO833] Paramount Iteration,7,31,0.045748,3.353514
[MO833] Paramount Iteration,15,31,0.045715,3.353455
[MO833] Paramount Iteration,0,31,0.045710,3.353658
[MO833] Paramount Iteration,8,31,0.045643,3.353771
[MO833] Paramount Iteration,1,31,0.045808,3.353834
[MO833] Paramount Iteration,12,31,0.045802,3.353932
[MO833] Paramount Iteration,4,31,0.045789,3.350949
[MO833] Paramount Iteration,11,32,0.206475,3.559570
[MO833] Paramount Iteration,10,32,0.207012,3.559800
[MO833] Paramount Iteration,3,32,0.206379,3.559799
[MO833] Paramount Iteration,7,32,0.206334,3.559869
[MO833] Paramount Iteration,2,32,0.206843,3.560022
[MO833] Paramount Iteration,13,32,0.206907,3.560011
[MO833] Paramount Iteration,15,32,0.206477,3.559970
[MO833] Paramount Iteration,6,32,0.206967,3.560228
[MO833] Paramount Iteration,5,32,0.206707,3.557055
[MO833] Paramount Iteration,8,32,0.206421,3.560252
[MO833] Paramount Iteration,0,32,0.206572,3.560290
[MO833] Paramount Iteration,14,32,0.207238,3.560287
[MO833] Paramount Iteration,9,32,0.206950,3.560446
[MO833] Paramount Iteration,4,32,0.206330,3.557305
[MO833] Paramount Iteration,12,32,0.206506,3.560483
[MO833] Paramount Iteration,1,32,0.207181,3.561033
[MO833] Paramount Iteration,11,33,0.045192,3.604789
[MO833] Paramount Iteration,10,33,0.045020,3.604854
[MO833] Paramount Iteration,13,33,0.044867,3.604907
[MO833] Paramount Iteration,1,33,0.044049,3.605103
[MO833] Paramount Iteration,5,33,0.044838,3.601972
[MO833] Paramount Iteration,6,33,0.044869,3.605153
[MO833] Paramount Iteration,3,33,0.045341,3.605169
[MO833] Paramount Iteration,9,33,0.044667,3.605133
[MO833] Paramount Iteration,7,33,0.045282,3.605180
[MO833] Paramount Iteration,2,33,0.045258,3.605316
[MO833] Paramount Iteration,14,33,0.044860,3.605172
[MO833] Paramount Iteration,0,33,0.045092,3.605437
[MO833] Paramount Iteration,15,33,0.045111,3.605166
[MO833] Paramount Iteration,8,33,0.045212,3.605564
[MO833] Paramount Iteration,12,33,0.045119,3.605646
[MO833] Paramount Iteration,4,33,0.045313,3.602638
[MO833] Paramount Iteration,11,34,0.044807,3.649625
[MO833] Paramount Iteration,7,34,0.044423,3.649612
[MO833] Paramount Iteration,10,34,0.044837,3.649713
[MO833] Paramount Iteration,3,34,0.044613,3.649812
[MO833] Paramount Iteration,13,34,0.044917,3.649853
[MO833] Paramount Iteration,2,34,0.044634,3.650000
[MO833] Paramount Iteration,0,34,0.044682,3.650154
[MO833] Paramount Iteration,5,34,0.044956,3.647013
[MO833] Paramount Iteration,1,34,0.045038,3.650166
[MO833] Paramount Iteration,6,34,0.044971,3.650220
[MO833] Paramount Iteration,15,34,0.044848,3.650095
[MO833] Paramount Iteration,8,34,0.044644,3.650280
[MO833] Paramount Iteration,9,34,0.045127,3.650291
[MO833] Paramount Iteration,12,34,0.044753,3.650444
[MO833] Paramount Iteration,4,34,0.044738,3.647401
[MO833] Paramount Iteration,14,34,0.045297,3.650491
[MO833] Paramount Iteration,11,35,0.045248,3.694901
[MO833] Paramount Iteration,3,35,0.045265,3.695104
[MO833] Paramount Iteration,10,35,0.045470,3.695211
[MO833] Paramount Iteration,5,35,0.045038,3.692130
[MO833] Paramount Iteration,13,35,0.045435,3.695319
[MO833] Paramount Iteration,7,35,0.045685,3.695328
[MO833] Paramount Iteration,2,35,0.045296,3.695332
[MO833] Paramount Iteration,0,35,0.045262,3.695468
[MO833] Paramount Iteration,6,35,0.045294,3.695561
[MO833] Paramount Iteration,15,35,0.045407,3.695590
[MO833] Paramount Iteration,9,35,0.045450,3.695757
[MO833] Paramount Iteration,4,35,0.045225,3.692649
[MO833] Paramount Iteration,8,35,0.045485,3.695876
[MO833] Paramount Iteration,12,35,0.045438,3.695929
[MO833] Paramount Iteration,1,35,0.045814,3.695987
[MO833] Paramount Iteration,14,35,0.045379,3.695896
[MO833] Paramount Iteration,11,36,0.207511,3.902439
[MO833] Paramount Iteration,10,36,0.207332,3.902581
[MO833] Paramount Iteration,7,36,0.207246,3.902603
[MO833] Paramount Iteration,3,36,0.207417,3.902585
[MO833] Paramount Iteration,13,36,0.207307,3.902653
[MO833] Paramount Iteration,2,36,0.207339,3.902690
[MO833] Paramount Iteration,6,36,0.207174,3.902771
[MO833] Paramount Iteration,0,36,0.207347,3.902875
[MO833] Paramount Iteration,5,36,0.207552,3.899765
[MO833] Paramount Iteration,15,36,0.207116,3.902800
[MO833] Paramount Iteration,14,36,0.206942,3.902864
[MO833] Paramount Iteration,8,36,0.207192,3.903086
[MO833] Paramount Iteration,9,36,0.207223,3.903059
[MO833] Paramount Iteration,12,36,0.207176,3.903150
[MO833] Paramount Iteration,4,36,0.207432,3.900104
[MO833] Paramount Iteration,1,36,0.207241,3.903244
[MO833] Paramount Iteration,11,37,0.044051,3.946521
[MO833] Paramount Iteration,10,37,0.044300,3.946916
[MO833] Paramount Iteration,7,37,0.044394,3.947026
[MO833] Paramount Iteration,3,37,0.044492,3.947144
[MO833] Paramount Iteration,15,37,0.044249,3.947136
[MO833] Paramount Iteration,13,37,0.044614,3.947297
[MO833] Paramount Iteration,2,37,0.044641,3.947349
[MO833] Paramount Iteration,0,37,0.044499,3.947437
[MO833] Paramount Iteration,6,37,0.044675,3.947482
[MO833] Paramount Iteration,5,37,0.044568,3.944414
[MO833] Paramount Iteration,8,37,0.044558,3.947653
[MO833] Paramount Iteration,9,37,0.044487,3.947627
[MO833] Paramount Iteration,14,37,0.044798,3.947673
[MO833] Paramount Iteration,1,37,0.044553,3.947864
[MO833] Paramount Iteration,12,37,0.044750,3.947945
[MO833] Paramount Iteration,4,37,0.044719,3.944847
[MO833] Paramount Iteration,13,38,0.045081,3.992407
[MO833] Paramount Iteration,10,38,0.045505,3.992452
[MO833] Paramount Iteration,11,38,0.045960,3.992508
[MO833] Paramount Iteration,2,38,0.045183,3.992551
[MO833] Paramount Iteration,3,38,0.045347,3.992559
[MO833] Paramount Iteration,5,38,0.044959,3.989458
[MO833] Paramount Iteration,9,38,0.044926,3.992632
[MO833] Paramount Iteration,6,38,0.045143,3.992677
[MO833] Paramount Iteration,7,38,0.045761,3.992817
[MO833] Paramount Iteration,1,38,0.045015,3.992897
[MO833] Paramount Iteration,14,38,0.045342,3.993038
[MO833] Paramount Iteration,0,38,0.045671,3.993166
[MO833] Paramount Iteration,12,38,0.045211,3.993201
[MO833] Paramount Iteration,8,38,0.045527,3.993189
[MO833] Paramount Iteration,15,38,0.045958,3.993181
[MO833] Paramount Iteration,4,38,0.045417,3.990285
[MO833] Paramount Iteration,10,39,0.045524,4.038044
[MO833] Paramount Iteration,13,39,0.045807,4.038245
[MO833] Paramount Iteration,6,39,0.045497,4.038259
[MO833] Paramount Iteration,2,39,0.045723,4.038299
[MO833] Paramount Iteration,11,39,0.045882,4.038399
[MO833] Paramount Iteration,1,39,0.045595,4.038518
[MO833] Paramount Iteration,9,39,0.045882,4.038592
[MO833] Paramount Iteration,3,39,0.046028,4.038645
[MO833] Paramount Iteration,7,39,0.045856,4.038691
[MO833] Paramount Iteration,5,39,0.046001,4.035549
[MO833] Paramount Iteration,14,39,0.045547,4.038621
[MO833] Paramount Iteration,0,39,0.045569,4.038770
[MO833] Paramount Iteration,12,39,0.045820,4.039063
[MO833] Paramount Iteration,8,39,0.045850,4.039061
[MO833] Paramount Iteration,15,39,0.045916,4.039133
[MO833] Paramount Iteration,4,39,0.045900,4.036212
[MO833] Paramount Iteration,11,40,0.208546,4.246963
[MO833] Paramount Iteration,10,40,0.209146,4.247254
[MO833] Paramount Iteration,3,40,0.208578,4.247261
[MO833] Paramount Iteration,13,40,0.208982,4.247256
[MO833] Paramount Iteration,7,40,0.208636,4.247348
[MO833] Paramount Iteration,0,40,0.208624,4.247435
[MO833] Paramount Iteration,6,40,0.209116,4.247454
[MO833] Paramount Iteration,2,40,0.209125,4.247453
[MO833] Paramount Iteration,5,40,0.208797,4.244430
[MO833] Paramount Iteration,1,40,0.209063,4.247607
[MO833] Paramount Iteration,8,40,0.208629,4.247713
[MO833] Paramount Iteration,9,40,0.209066,4.247737
[MO833] Paramount Iteration,12,40,0.208793,4.247899
[MO833] Paramount Iteration,15,40,0.208573,4.247773
[MO833] Paramount Iteration,14,40,0.209152,4.247808
[MO833] Paramount Iteration,4,40,0.208756,4.244996
[MO833] Paramount Iteration,10,41,0.046138,4.293446
[MO833] Paramount Iteration,6,41,0.046199,4.293705
[MO833] Paramount Iteration,13,41,0.046401,4.293687
[MO833] Paramount Iteration,11,41,0.046739,4.293732
[MO833] Paramount Iteration,2,41,0.046314,4.293786
[MO833] Paramount Iteration,14,41,0.046113,4.293930
[MO833] Paramount Iteration,9,41,0.046276,4.294094
[MO833] Paramount Iteration,7,41,0.046767,4.294144
[MO833] Paramount Iteration,3,41,0.046818,4.294149
[MO833] Paramount Iteration,5,41,0.046523,4.291045
[MO833] Paramount Iteration,0,41,0.046727,4.294211
[MO833] Paramount Iteration,1,41,0.046580,4.294260
[MO833] Paramount Iteration,8,41,0.046538,4.294284
[MO833] Paramount Iteration,12,41,0.046482,4.294423
[MO833] Paramount Iteration,15,41,0.046572,4.294434
[MO833] Paramount Iteration,4,41,0.046659,4.291680
[MO833] Paramount Iteration,10,42,0.046078,4.339586
[MO833] Paramount Iteration,11,42,0.046042,4.339794
[MO833] Paramount Iteration,13,42,0.046108,4.339824
[MO833] Paramount Iteration,2,42,0.045999,4.339815
[MO833] Paramount Iteration,6,42,0.046122,4.339909
[MO833] Paramount Iteration,1,42,0.045729,4.340064
[MO833] Paramount Iteration,3,42,0.045878,4.340068
[MO833] Paramount Iteration,7,42,0.046008,4.340172
[MO833] Paramount Iteration,5,42,0.045895,4.337031
[MO833] Paramount Iteration,0,42,0.045937,4.340197
[MO833] Paramount Iteration,14,42,0.046164,4.340127
[MO833] Paramount Iteration,9,42,0.046125,4.340298
[MO833] Paramount Iteration,15,42,0.045850,4.340333
[MO833] Paramount Iteration,8,42,0.046155,4.340460
[MO833] Paramount Iteration,12,42,0.046114,4.340579
[MO833] Paramount Iteration,4,42,0.045910,4.337644
[MO833] Paramount Iteration,11,43,0.046482,4.386295
[MO833] Paramount Iteration,13,43,0.046482,4.386335
[MO833] Paramount Iteration,10,43,0.046706,4.386354
[MO833] Paramount Iteration,5,43,0.046140,4.383256
[MO833] Paramount Iteration,6,43,0.046520,4.386517
[MO833] Paramount Iteration,7,43,0.046349,4.386550
[MO833] Paramount Iteration,3,43,0.046481,4.386587
[MO833] Paramount Iteration,2,43,0.046773,4.386617
[MO833] Paramount Iteration,1,43,0.046537,4.386627
[MO833] Paramount Iteration,0,43,0.046616,4.386840
[MO833] Paramount Iteration,14,43,0.046628,4.386789
[MO833] Paramount Iteration,15,43,0.046494,4.386887
[MO833] Paramount Iteration,9,43,0.046676,4.387054
[MO833] Paramount Iteration,4,43,0.046296,4.383995
[MO833] Paramount Iteration,12,43,0.046559,4.387184
[MO833] Paramount Iteration,8,43,0.046774,4.387290
[MO833] Paramount Iteration,10,44,0.211541,4.597916
[MO833] Paramount Iteration,6,44,0.211635,4.598246
[MO833] Paramount Iteration,13,44,0.211904,4.598269
[MO833] Paramount Iteration,11,44,0.211985,4.598308
[MO833] Paramount Iteration,2,44,0.211665,4.598290
[MO833] Paramount Iteration,9,44,0.211391,4.598531
[MO833] Paramount Iteration,14,44,0.211617,4.598440
[MO833] Paramount Iteration,3,44,0.211982,4.598636
[MO833] Paramount Iteration,7,44,0.212116,4.598674
[MO833] Paramount Iteration,5,44,0.212178,4.595515
[MO833] Paramount Iteration,0,44,0.211954,4.598832
[MO833] Paramount Iteration,1,44,0.212106,4.598819
[MO833] Paramount Iteration,8,44,0.211568,4.598923
[MO833] Paramount Iteration,15,44,0.211938,4.598853
[MO833] Paramount Iteration,12,44,0.211879,4.599107
[MO833] Paramount Iteration,4,44,0.212172,4.596222
[MO833] Paramount Iteration,11,45,0.046298,4.644627
[MO833] Paramount Iteration,13,45,0.046383,4.644681
[MO833] Paramount Iteration,10,45,0.046843,4.644821
[MO833] Paramount Iteration,3,45,0.046148,4.644826
[MO833] Paramount Iteration,2,45,0.046718,4.645038
[MO833] Paramount Iteration,5,45,0.046377,4.641980
[MO833] Paramount Iteration,7,45,0.046439,4.645160
[MO833] Paramount Iteration,8,45,0.046225,4.645190
[MO833] Paramount Iteration,15,45,0.046170,4.645069
[MO833] Paramount Iteration,9,45,0.046623,4.645186
[MO833] Paramount Iteration,6,45,0.047015,4.645346
[MO833] Paramount Iteration,12,45,0.046288,4.645437
[MO833] Paramount Iteration,14,45,0.046899,4.645376
[MO833] Paramount Iteration,0,45,0.046636,4.645477
[MO833] Paramount Iteration,4,45,0.046190,4.642484
[MO833] Paramount Iteration,1,45,0.046909,4.645824
[MO833] Paramount Iteration,10,46,0.046371,4.691224
[MO833] Paramount Iteration,11,46,0.046801,4.691455
[MO833] Paramount Iteration,2,46,0.046480,4.691537
[MO833] Paramount Iteration,13,46,0.046847,4.691558
[MO833] Paramount Iteration,14,46,0.046179,4.691577
[MO833] Paramount Iteration,6,46,0.046308,4.691674
[MO833] Paramount Iteration,3,46,0.046858,4.691751
[MO833] Paramount Iteration,9,46,0.046617,4.691825
[MO833] Paramount Iteration,0,46,0.046353,4.691899
[MO833] Paramount Iteration,1,46,0.046100,4.692010
[MO833] Paramount Iteration,8,46,0.046745,4.692018
[MO833] Paramount Iteration,5,46,0.046803,4.688871
[MO833] Paramount Iteration,7,46,0.046845,4.692082
[MO833] Paramount Iteration,15,46,0.046866,4.692016
[MO833] Paramount Iteration,12,46,0.046840,4.692321
[MO833] Paramount Iteration,4,46,0.046818,4.689390
[MO833] Paramount Iteration,10,47,0.046637,4.737919
[MO833] Paramount Iteration,11,47,0.046702,4.738174
[MO833] Paramount Iteration,13,47,0.046612,4.738199
[MO833] Paramount Iteration,6,47,0.046603,4.738309
[MO833] Paramount Iteration,2,47,0.046711,4.738342
[MO833] Paramount Iteration,7,47,0.046331,4.738455
[MO833] Paramount Iteration,3,47,0.046642,4.738442
[MO833] Paramount Iteration,9,47,0.046642,4.738496
[MO833] Paramount Iteration,0,47,0.046592,4.738539
[MO833] Paramount Iteration,8,47,0.046535,4.738590
[MO833] Paramount Iteration,5,47,0.046471,4.735425
[MO833] Paramount Iteration,14,47,0.046885,4.738496
[MO833] Paramount Iteration,1,47,0.046525,4.738703
[MO833] Paramount Iteration,15,47,0.046571,4.738633
[MO833] Paramount Iteration,12,47,0.046574,4.738942
[MO833] Paramount Iteration,4,47,0.046594,4.736039
[MO833] Paramount Iteration,10,48,0.212989,4.950970
[MO833] Paramount Iteration,6,48,0.212830,4.951169
[MO833] Paramount Iteration,2,48,0.212716,4.951144
[MO833] Paramount Iteration,13,48,0.213004,4.951234
[MO833] Paramount Iteration,14,48,0.212674,4.951203
[MO833] Paramount Iteration,11,48,0.213096,4.951289
[MO833] Paramount Iteration,3,48,0.212871,4.951375
[MO833] Paramount Iteration,9,48,0.212820,4.951389
[MO833] Paramount Iteration,0,48,0.212941,4.951537
[MO833] Paramount Iteration,7,48,0.213075,4.951565
[MO833] Paramount Iteration,1,48,0.212744,4.951536
[MO833] Paramount Iteration,8,48,0.213008,4.951644
[MO833] Paramount Iteration,15,48,0.212902,4.951575
[MO833] Paramount Iteration,5,48,0.213027,4.948542
[MO833] Paramount Iteration,12,48,0.212964,4.951951
[MO833] Paramount Iteration,4,48,0.212957,4.949071
[MO833] Paramount Iteration,10,49,0.046970,4.998006
[MO833] Paramount Iteration,11,49,0.046951,4.998259
[MO833] Paramount Iteration,6,49,0.047078,4.998277
[MO833] Paramount Iteration,14,49,0.047016,4.998250
[MO833] Paramount Iteration,13,49,0.047127,4.998391
[MO833] Paramount Iteration,2,49,0.047188,4.998416
[MO833] Paramount Iteration,1,49,0.046858,4.998571
[MO833] Paramount Iteration,3,49,0.047161,4.998584
[MO833] Paramount Iteration,15,49,0.047020,4.998633
[MO833] Paramount Iteration,0,49,0.047169,4.998721
[MO833] Paramount Iteration,7,49,0.047153,4.998758
[MO833] Paramount Iteration,9,49,0.047317,4.998784
[MO833] Paramount Iteration,5,49,0.047050,4.995682
[MO833] Paramount Iteration,8,49,0.047334,4.999036
[MO833] Paramount Iteration,12,49,0.047091,4.999089
[MO833] Paramount Iteration,4,49,0.047045,4.996188
[MO833] Paramount Iteration,10,50,0.046518,5.044587
[MO833] Paramount Iteration,6,50,0.046505,5.044813
[MO833] Paramount Iteration,11,50,0.046624,5.044902
[MO833] Paramount Iteration,2,50,0.046396,5.044896
[MO833] Paramount Iteration,13,50,0.046558,5.044979
[MO833] Paramount Iteration,14,50,0.046608,5.044950
[MO833] Paramount Iteration,3,50,0.046543,5.045172
[MO833] Paramount Iteration,9,50,0.046305,5.045173
[MO833] Paramount Iteration,7,50,0.046505,5.045304
[MO833] Paramount Iteration,5,50,0.046435,5.042205
[MO833] Paramount Iteration,15,50,0.046603,5.045284
[MO833] Paramount Iteration,0,50,0.046601,5.045357
[MO833] Paramount Iteration,8,50,0.046302,5.045398
[MO833] Paramount Iteration,12,50,0.046410,5.045541
[MO833] Paramount Iteration,1,50,0.046916,5.045600
[MO833] Paramount Iteration,4,50,0.046432,5.042695
[MO833] Paramount Iteration,10,51,0.046159,5.090806
[MO833] Paramount Iteration,11,51,0.046111,5.091032
[MO833] Paramount Iteration,6,51,0.046198,5.091043
[MO833] Paramount Iteration,13,51,0.046081,5.091090
[MO833] Paramount Iteration,2,51,0.046182,5.091160
[MO833] Paramount Iteration,3,51,0.046152,5.091367
[MO833] Paramount Iteration,14,51,0.046220,5.091266
[MO833] Paramount Iteration,5,51,0.045993,5.088285
[MO833] Paramount Iteration,0,51,0.046057,5.091463
[MO833] Paramount Iteration,7,51,0.046127,5.091468
[MO833] Paramount Iteration,9,51,0.046276,5.091524
[MO833] Paramount Iteration,15,51,0.046225,5.091559
[MO833] Paramount Iteration,8,51,0.046231,5.091686
[MO833] Paramount Iteration,1,51,0.046098,5.091755
[MO833] Paramount Iteration,12,51,0.046298,5.091878
[MO833] Paramount Iteration,4,51,0.046104,5.088867
[MO833] Paramount Iteration,10,52,0.210054,5.300921
[MO833] Paramount Iteration,6,52,0.209907,5.300981
[MO833] Paramount Iteration,2,52,0.209806,5.301054
[MO833] Paramount Iteration,13,52,0.209996,5.301117
[MO833] Paramount Iteration,11,52,0.210121,5.301171
[MO833] Paramount Iteration,14,52,0.209920,5.301289
[MO833] Paramount Iteration,3,52,0.209965,5.301378
[MO833] Paramount Iteration,7,52,0.210011,5.301516
[MO833] Paramount Iteration,5,52,0.210013,5.298386
[MO833] Paramount Iteration,1,52,0.209708,5.301524
[MO833] Paramount Iteration,9,52,0.209980,5.301582
[MO833] Paramount Iteration,0,52,0.210124,5.301649
[MO833] Paramount Iteration,15,52,0.210046,5.301654
[MO833] Paramount Iteration,12,52,0.209938,5.301863
[MO833] Paramount Iteration,8,52,0.210125,5.301865
[MO833] Paramount Iteration,4,52,0.210136,5.299056
[MO833] Paramount Iteration,10,53,0.046243,5.347228
[MO833] Paramount Iteration,11,53,0.046365,5.347555
[MO833] Paramount Iteration,2,53,0.046463,5.347547
[MO833] Paramount Iteration,6,53,0.046686,5.347697
[MO833] Paramount Iteration,13,53,0.046613,5.347758
[MO833] Paramount Iteration,14,53,0.046331,5.347720
[MO833] Paramount Iteration,3,53,0.046437,5.347864
[MO833] Paramount Iteration,0,53,0.046326,5.347985
[MO833] Paramount Iteration,5,53,0.046360,5.344835
[MO833] Paramount Iteration,1,53,0.046265,5.347987
[MO833] Paramount Iteration,9,53,0.046362,5.348026
[MO833] Paramount Iteration,15,53,0.046444,5.348119
[MO833] Paramount Iteration,7,53,0.046685,5.348243
[MO833] Paramount Iteration,8,53,0.046428,5.348314
[MO833] Paramount Iteration,12,53,0.046526,5.348429
[MO833] Paramount Iteration,4,53,0.046217,5.345301
[MO833] Paramount Iteration,10,54,0.046679,5.393983
[MO833] Paramount Iteration,13,54,0.046237,5.394025
[MO833] Paramount Iteration,11,54,0.046563,5.394137
[MO833] Paramount Iteration,6,54,0.046448,5.394177
[MO833] Paramount Iteration,2,54,0.046654,5.394231
[MO833] Paramount Iteration,7,54,0.046056,5.394341
[MO833] Paramount Iteration,5,54,0.046269,5.391184
[MO833] Paramount Iteration,3,54,0.046497,5.394399
[MO833] Paramount Iteration,14,54,0.046523,5.394350
[MO833] Paramount Iteration,0,54,0.046476,5.394478
[MO833] Paramount Iteration,15,54,0.046281,5.394423
[MO833] Paramount Iteration,1,54,0.046278,5.394430
[MO833] Paramount Iteration,9,54,0.046407,5.394518
[MO833] Paramount Iteration,12,54,0.046292,5.394764
[MO833] Paramount Iteration,8,54,0.046394,5.394756
[MO833] Paramount Iteration,4,54,0.046453,5.391774
[MO833] Paramount Iteration,10,55,0.046421,5.440466
[MO833] Paramount Iteration,6,55,0.046283,5.440490
[MO833] Paramount Iteration,2,55,0.046311,5.440570
[MO833] Paramount Iteration,14,55,0.046125,5.440599
[MO833] Paramount Iteration,11,55,0.046557,5.440714
[MO833] Paramount Iteration,13,55,0.046685,5.440740
[MO833] Paramount Iteration,3,55,0.046397,5.440830
[MO833] Paramount Iteration,5,55,0.046461,5.437732
[MO833] Paramount Iteration,7,55,0.046589,5.440964
[MO833] Paramount Iteration,15,55,0.046547,5.440986
[MO833] Paramount Iteration,9,55,0.046480,5.441081
[MO833] Paramount Iteration,0,55,0.046727,5.441263
[MO833] Paramount Iteration,8,55,0.046574,5.441378
[MO833] Paramount Iteration,1,55,0.046996,5.441494
[MO833] Paramount Iteration,12,55,0.046777,5.441588
[MO833] Paramount Iteration,4,55,0.046637,5.438437
[MO833] Paramount Iteration,10,56,0.210499,5.651032
[MO833] Paramount Iteration,2,56,0.210680,5.651278
[MO833] Paramount Iteration,13,56,0.210607,5.651377
[MO833] Paramount Iteration,11,56,0.210722,5.651456
[MO833] Paramount Iteration,6,56,0.210986,5.651503
[MO833] Paramount Iteration,5,56,0.210573,5.648387
[MO833] Paramount Iteration,14,56,0.210849,5.651518
[MO833] Paramount Iteration,3,56,0.210754,5.651622
[MO833] Paramount Iteration,9,56,0.210500,5.651666
[MO833] Paramount Iteration,0,56,0.210424,5.651748
[MO833] Paramount Iteration,1,56,0.210259,5.651816
[MO833] Paramount Iteration,7,56,0.210866,5.651869
[MO833] Paramount Iteration,15,56,0.210822,5.651829
[MO833] Paramount Iteration,8,56,0.210625,5.652024
[MO833] Paramount Iteration,12,56,0.210618,5.652251
[MO833] Paramount Iteration,4,56,0.210648,5.649111
[MO833] Paramount Iteration,11,57,0.045596,5.697073
[MO833] Paramount Iteration,10,57,0.046058,5.697152
[MO833] Paramount Iteration,3,57,0.045712,5.697370
[MO833] Paramount Iteration,13,57,0.046057,5.697464
[MO833] Paramount Iteration,2,57,0.046232,5.697538
[MO833] Paramount Iteration,6,57,0.046097,5.697631
[MO833] Paramount Iteration,7,57,0.045713,5.697624
[MO833] Paramount Iteration,0,57,0.045913,5.697716
[MO833] Paramount Iteration,5,57,0.046176,5.694642
[MO833] Paramount Iteration,15,57,0.045861,5.697710
[MO833] Paramount Iteration,14,57,0.046131,5.697738
[MO833] Paramount Iteration,12,57,0.045653,5.697952
[MO833] Paramount Iteration,4,57,0.045836,5.694969
[MO833] Paramount Iteration,9,57,0.046369,5.698114
[MO833] Paramount Iteration,8,57,0.046110,5.698156
[MO833] Paramount Iteration,1,57,0.046374,5.698232
[MO833] Paramount Iteration,10,58,0.046299,5.743478
[MO833] Paramount Iteration,13,58,0.046329,5.743824
[MO833] Paramount Iteration,11,58,0.046749,5.743849
[MO833] Paramount Iteration,6,58,0.046215,5.743861
[MO833] Paramount Iteration,2,58,0.046274,5.743828
[MO833] Paramount Iteration,5,58,0.046079,5.740803
[MO833] Paramount Iteration,9,58,0.045867,5.744070
[MO833] Paramount Iteration,14,58,0.046116,5.743984
[MO833] Paramount Iteration,3,58,0.046752,5.744196
[MO833] Paramount Iteration,7,58,0.046578,5.744270
[MO833] Paramount Iteration,15,58,0.046559,5.744303
[MO833] Paramount Iteration,0,58,0.046714,5.744489
[MO833] Paramount Iteration,1,58,0.046217,5.744511
[MO833] Paramount Iteration,8,58,0.046400,5.744566
[MO833] Paramount Iteration,4,58,0.046604,5.741595
[MO833] Paramount Iteration,12,58,0.046840,5.744835
[MO833] Paramount Iteration,10,59,0.046041,5.789578
[MO833] Paramount Iteration,6,59,0.045876,5.789768
[MO833] Paramount Iteration,2,59,0.045953,5.789808
[MO833] Paramount Iteration,11,59,0.045986,5.789854
[MO833] Paramount Iteration,13,59,0.046173,5.790028
[MO833] Paramount Iteration,3,59,0.045889,5.790125
[MO833] Paramount Iteration,7,59,0.045894,5.790201
[MO833] Paramount Iteration,9,59,0.046022,5.790169
[MO833] Paramount Iteration,5,59,0.046138,5.787014
[MO833] Paramount Iteration,14,59,0.045987,5.790070
[MO833] Paramount Iteration,0,59,0.045743,5.790298
[MO833] Paramount Iteration,1,59,0.045915,5.790434
[MO833] Paramount Iteration,8,59,0.045877,5.790464
[MO833] Paramount Iteration,15,59,0.046029,5.790354
[MO833] Paramount Iteration,4,59,0.046074,5.787693
[MO833] Paramount Iteration,12,59,0.046016,5.790900
[MO833] Paramount Iteration,10,60,0.212723,6.002359
[MO833] Paramount Iteration,2,60,0.212594,6.002429
[MO833] Paramount Iteration,13,60,0.212491,6.002548
[MO833] Paramount Iteration,5,60,0.212287,5.999386
[MO833] Paramount Iteration,11,60,0.212770,6.002643
[MO833] Paramount Iteration,3,60,0.212509,6.002670
[MO833] Paramount Iteration,6,60,0.212877,6.002675
[MO833] Paramount Iteration,1,60,0.212259,6.002811
[MO833] Paramount Iteration,7,60,0.212607,6.002849
[MO833] Paramount Iteration,14,60,0.212624,6.002796
[MO833] Paramount Iteration,0,60,0.212651,6.003010
[MO833] Paramount Iteration,15,60,0.212586,6.002964
[MO833] Paramount Iteration,9,60,0.212848,6.003092
[MO833] Paramount Iteration,12,60,0.212255,6.003202
[MO833] Paramount Iteration,8,60,0.212837,6.003323
[MO833] Paramount Iteration,4,60,0.212506,6.000223
[MO833] Paramount Iteration,1,61,0.046579,6.049516
[MO833] Paramount Iteration,10,61,0.047088,6.049511
[MO833] Paramount Iteration,6,61,0.046824,6.049530
[MO833] Paramount Iteration,13,61,0.046991,6.049568
[MO833] Paramount Iteration,5,61,0.046986,6.046458
[MO833] Paramount Iteration,11,61,0.047114,6.049776
[MO833] Paramount Iteration,7,61,0.046912,6.049795
[MO833] Paramount Iteration,14,61,0.046863,6.049752
[MO833] Paramount Iteration,0,61,0.046854,6.049911
[MO833] Paramount Iteration,2,61,0.047472,6.049929
[MO833] Paramount Iteration,15,61,0.046966,6.049953
[MO833] Paramount Iteration,3,61,0.047455,6.050160
[MO833] Paramount Iteration,9,61,0.047049,6.050226
[MO833] Paramount Iteration,12,61,0.047097,6.050338
[MO833] Paramount Iteration,4,61,0.047006,6.047257
[MO833] Paramount Iteration,8,61,0.047082,6.050428
[MO833] Paramount Iteration,1,62,0.046373,6.096125
[MO833] Paramount Iteration,10,62,0.046590,6.096162
[MO833] Paramount Iteration,11,62,0.046424,6.096220
[MO833] Paramount Iteration,5,62,0.046584,6.093125
[MO833] Paramount Iteration,13,62,0.046674,6.096273
[MO833] Paramount Iteration,6,62,0.046780,6.096340
[MO833] Paramount Iteration,7,62,0.046525,6.096355
[MO833] Paramount Iteration,0,62,0.046485,6.096440
[MO833] Paramount Iteration,3,62,0.046288,6.096486
[MO833] Paramount Iteration,2,62,0.046553,6.096514
[MO833] Paramount Iteration,14,62,0.046773,6.096624
[MO833] Paramount Iteration,15,62,0.046696,6.096671
[MO833] Paramount Iteration,9,62,0.046434,6.096749
[MO833] Paramount Iteration,12,62,0.046585,6.096967
[MO833] Paramount Iteration,4,62,0.046520,6.093805
[MO833] Paramount Iteration,8,62,0.046631,6.097081
[MO833] Paramount Iteration,13,63,0.046025,6.142326
[MO833] Paramount Iteration,10,63,0.046185,6.142406
[MO833] Paramount Iteration,11,63,0.046189,6.142441
[MO833] Paramount Iteration,2,63,0.046103,6.142626
[MO833] Paramount Iteration,5,63,0.046286,6.139491
[MO833] Paramount Iteration,6,63,0.046341,6.142709
[MO833] Paramount Iteration,3,63,0.046161,6.142714
[MO833] Paramount Iteration,9,63,0.045907,6.142751
[MO833] Paramount Iteration,7,63,0.046416,6.142826
[MO833] Paramount Iteration,1,63,0.046390,6.142818
[MO833] Paramount Iteration,0,63,0.046466,6.142951
[MO833] Paramount Iteration,14,63,0.046178,6.142932
[MO833] Paramount Iteration,15,63,0.046270,6.142950
[MO833] Paramount Iteration,8,63,0.046005,6.143109
[MO833] Paramount Iteration,12,63,0.046132,6.143144
[MO833] Paramount Iteration,4,63,0.046311,6.140141
[MO833] Paramount Iteration,10,64,0.212755,6.355225
[MO833] Paramount Iteration,2,64,0.212829,6.355484
[MO833] Paramount Iteration,11,64,0.213094,6.355543
[MO833] Paramount Iteration,13,64,0.213258,6.355613
[MO833] Paramount Iteration,14,64,0.212504,6.355541
[MO833] Paramount Iteration,6,64,0.212914,6.355656
[MO833] Paramount Iteration,3,64,0.213145,6.355887
[MO833] Paramount Iteration,15,64,0.212938,6.355897
[MO833] Paramount Iteration,7,64,0.213132,6.355996
[MO833] Paramount Iteration,0,64,0.213096,6.356079
[MO833] Paramount Iteration,9,64,0.213181,6.356035
[MO833] Paramount Iteration,5,64,0.213369,6.352944
[MO833] Paramount Iteration,1,64,0.213099,6.356071
[MO833] Paramount Iteration,8,64,0.213168,6.356299
[MO833] Paramount Iteration,12,64,0.213256,6.356446
[MO833] Paramount Iteration,4,64,0.213413,6.353580
[MO833] Paramount Iteration,10,65,0.047405,6.402688
[MO833] Paramount Iteration,6,65,0.047208,6.402951
[MO833] Paramount Iteration,11,65,0.047438,6.402999
[MO833] Paramount Iteration,13,65,0.047363,6.403003
[MO833] Paramount Iteration,2,65,0.047561,6.403074
[MO833] Paramount Iteration,14,65,0.047448,6.403060
[MO833] Paramount Iteration,7,65,0.047213,6.403229
[MO833] Paramount Iteration,15,65,0.047366,6.403285
[MO833] Paramount Iteration,3,65,0.047424,6.403355
[MO833] Paramount Iteration,5,65,0.047213,6.400241
[MO833] Paramount Iteration,9,65,0.047466,6.403583
[MO833] Paramount Iteration,0,65,0.047538,6.403630
[MO833] Paramount Iteration,8,65,0.047328,6.403692
[MO833] Paramount Iteration,12,65,0.047273,6.403760
[MO833] Paramount Iteration,4,65,0.047194,6.400800
[MO833] Paramount Iteration,1,65,0.047818,6.404027
[MO833] Paramount Iteration,11,66,0.047661,6.450679
[MO833] Paramount Iteration,7,66,0.047447,6.450696
[MO833] Paramount Iteration,3,66,0.047388,6.450781
[MO833] Paramount Iteration,15,66,0.047630,6.450937
[MO833] Paramount Iteration,10,66,0.048393,6.451142
[MO833] Paramount Iteration,2,66,0.048169,6.451273
[MO833] Paramount Iteration,6,66,0.048347,6.451375
[MO833] Paramount Iteration,0,66,0.047694,6.451373
[MO833] Paramount Iteration,14,66,0.048326,6.451473
[MO833] Paramount Iteration,13,66,0.048529,6.451561
[MO833] Paramount Iteration,8,66,0.047823,6.451561
[MO833] Paramount Iteration,4,66,0.047713,6.448534
[MO833] Paramount Iteration,5,66,0.048228,6.448554
[MO833] Paramount Iteration,12,66,0.047987,6.451792
[MO833] Paramount Iteration,9,66,0.048186,6.451802
[MO833] Paramount Iteration,1,66,0.048168,6.452253
[MO833] Paramount Iteration,10,67,0.214748,6.665926
[MO833] Paramount Iteration,11,67,0.215368,6.666075
[MO833] Paramount Iteration,6,67,0.214763,6.666192
[MO833] Paramount Iteration,2,67,0.214861,6.666155
[MO833] Paramount Iteration,7,67,0.215533,6.666260
[MO833] Paramount Iteration,13,67,0.214649,6.666240
[MO833] Paramount Iteration,5,67,0.214475,6.663102
[MO833] Paramount Iteration,3,67,0.215460,6.666307
[MO833] Paramount Iteration,14,67,0.214882,6.666399
[MO833] Paramount Iteration,15,67,0.215500,6.666467
[MO833] Paramount Iteration,0,67,0.215340,6.666764
[MO833] Paramount Iteration,12,67,0.215117,6.666949
[MO833] Paramount Iteration,9,67,0.215069,6.666892
[MO833] Paramount Iteration,4,67,0.215248,6.663818
[MO833] Paramount Iteration,1,67,0.214740,6.667062
[MO833] Paramount Iteration,8,67,0.215440,6.667099
[MO833] Paramount Iteration,1,68,0.046456,6.713618
[MO833] Paramount Iteration,10,68,0.047610,6.713600
[MO833] Paramount Iteration,13,68,0.047373,6.713642
[MO833] Paramount Iteration,11,68,0.047566,6.713660
[MO833] Paramount Iteration,5,68,0.047469,6.710661
[MO833] Paramount Iteration,2,68,0.047637,6.713819
[MO833] Paramount Iteration,3,68,0.047497,6.713860
[MO833] Paramount Iteration,0,68,0.047215,6.714039
[MO833] Paramount Iteration,6,68,0.047742,6.714015
[MO833] Paramount Iteration,7,68,0.047736,6.714027
[MO833] Paramount Iteration,14,68,0.047511,6.714051
[MO833] Paramount Iteration,15,68,0.047548,6.714037
[MO833] Paramount Iteration,9,68,0.047259,6.714185
[MO833] Paramount Iteration,12,68,0.047445,6.714435
[MO833] Paramount Iteration,4,68,0.047458,6.711303
[MO833] Paramount Iteration,8,68,0.047456,6.714595
[MO833] Paramount Iteration,1,69,0.047194,6.761012
[MO833] Paramount Iteration,13,69,0.047378,6.761049
[MO833] Paramount Iteration,5,69,0.047205,6.757948
[MO833] Paramount Iteration,11,69,0.047383,6.761075
[MO833] Paramount Iteration,10,69,0.047508,6.761170
[MO833] Paramount Iteration,2,69,0.047327,6.761226
[MO833] Paramount Iteration,3,69,0.047363,6.761232
[MO833] Paramount Iteration,6,69,0.047321,6.761437
[MO833] Paramount Iteration,7,69,0.047440,6.761481
[MO833] Paramount Iteration,0,69,0.047444,6.761523
[MO833] Paramount Iteration,14,69,0.047348,6.761483
[MO833] Paramount Iteration,15,69,0.047428,6.761496
[MO833] Paramount Iteration,9,69,0.047444,6.761663
[MO833] Paramount Iteration,12,69,0.047278,6.761754
[MO833] Paramount Iteration,4,69,0.047318,6.758647
[MO833] Paramount Iteration,8,69,0.047378,6.762021
[MO833] Paramount Iteration,10,70,0.046861,6.808060
[MO833] Paramount Iteration,5,70,0.047163,6.805186
[MO833] Paramount Iteration,2,70,0.047018,6.808324
[MO833] Paramount Iteration,11,70,0.047306,6.808411
[MO833] Paramount Iteration,6,70,0.046910,6.808452
[MO833] Paramount Iteration,1,70,0.047199,6.808470
[MO833] Paramount Iteration,13,70,0.047469,6.808546
[MO833] Paramount Iteration,14,70,0.046940,6.808519
[MO833] Paramount Iteration,7,70,0.047175,6.808665
[MO833] Paramount Iteration,3,70,0.047389,6.808635
[MO833] Paramount Iteration,15,70,0.047188,6.808697
[MO833] Paramount Iteration,0,70,0.047202,6.808766
[MO833] Paramount Iteration,9,70,0.047234,6.808932
[MO833] Paramount Iteration,4,70,0.047372,6.806044
[MO833] Paramount Iteration,8,70,0.047121,6.809209
[MO833] Paramount Iteration,12,70,0.047551,6.809347
[MO833] Paramount Iteration,13,71,0.213706,7.022283
[MO833] Paramount Iteration,5,71,0.213834,7.019094
[MO833] Paramount Iteration,10,71,0.214136,7.022256
[MO833] Paramount Iteration,11,71,0.213881,7.022311
[MO833] Paramount Iteration,1,71,0.213838,7.022512
[MO833] Paramount Iteration,6,71,0.213971,7.022507
[MO833] Paramount Iteration,7,71,0.213833,7.022545
[MO833] Paramount Iteration,2,71,0.214122,7.022527
[MO833] Paramount Iteration,3,71,0.213919,7.022574
[MO833] Paramount Iteration,0,71,0.213929,7.022736
[MO833] Paramount Iteration,14,71,0.214035,7.022645
[MO833] Paramount Iteration,15,71,0.214005,7.022720
[MO833] Paramount Iteration,9,71,0.213819,7.022783
[MO833] Paramount Iteration,12,71,0.213557,7.022948
[MO833] Paramount Iteration,8,71,0.213815,7.023069
[MO833] Paramount Iteration,4,71,0.213852,7.019921
[MO833] Paramount Iteration,10,72,0.047318,7.069642
[MO833] Paramount Iteration,6,72,0.047188,7.069798
[MO833] Paramount Iteration,13,72,0.047504,7.069816
[MO833] Paramount Iteration,14,72,0.047049,7.069846
[MO833] Paramount Iteration,11,72,0.047627,7.069946
[MO833] Paramount Iteration,1,72,0.047348,7.070055
[MO833] Paramount Iteration,2,72,0.047384,7.070011
[MO833] Paramount Iteration,0,72,0.047459,7.070245
[MO833] Paramount Iteration,5,72,0.047908,7.067083
[MO833] Paramount Iteration,7,72,0.047730,7.070284
[MO833] Paramount Iteration,3,72,0.047674,7.070257
[MO833] Paramount Iteration,15,72,0.047529,7.070265
[MO833] Paramount Iteration,9,72,0.047624,7.070444
[MO833] Paramount Iteration,12,72,0.047657,7.070646
[MO833] Paramount Iteration,8,72,0.047554,7.070684
[MO833] Paramount Iteration,4,72,0.047768,7.067714
[MO833] Paramount Iteration,10,73,0.047586,7.117288
[MO833] Paramount Iteration,11,73,0.047368,7.117332
[MO833] Paramount Iteration,13,73,0.047565,7.117411
[MO833] Paramount Iteration,6,73,0.047642,7.117525
[MO833] Paramount Iteration,7,73,0.047179,7.117510
[MO833] Paramount Iteration,5,73,0.047196,7.114365
[MO833] Paramount Iteration,2,73,0.047500,7.117592
[MO833] Paramount Iteration,3,73,0.047320,7.117597
[MO833] Paramount Iteration,1,73,0.047615,7.117778
[MO833] Paramount Iteration,14,73,0.047807,7.117728
[MO833] Paramount Iteration,15,73,0.047413,7.117729
[MO833] Paramount Iteration,0,73,0.047610,7.117896
[MO833] Paramount Iteration,9,73,0.047572,7.118051
[MO833] Paramount Iteration,12,73,0.047493,7.118182
[MO833] Paramount Iteration,4,73,0.047285,7.115024
[MO833] Paramount Iteration,8,73,0.047597,7.118343
[MO833] Paramount Iteration,11,74,0.215225,7.332565
[MO833] Paramount Iteration,13,74,0.215191,7.332632
[MO833] Paramount Iteration,10,74,0.215273,7.332625
[MO833] Paramount Iteration,2,74,0.215141,7.332813
[MO833] Paramount Iteration,3,74,0.215182,7.332796
[MO833] Paramount Iteration,6,74,0.215502,7.333035
[MO833] Paramount Iteration,7,74,0.215441,7.333016
[MO833] Paramount Iteration,5,74,0.215476,7.329919
[MO833] Paramount Iteration,15,74,0.215232,7.332984
[MO833] Paramount Iteration,9,74,0.215010,7.333099
[MO833] Paramount Iteration,14,74,0.215219,7.333039
[MO833] Paramount Iteration,1,74,0.215299,7.333217
[MO833] Paramount Iteration,0,74,0.215324,7.333257
[MO833] Paramount Iteration,8,74,0.214941,7.333349
[MO833] Paramount Iteration,12,74,0.215147,7.333375
[MO833] Paramount Iteration,4,74,0.215499,7.330548
[MO833] Paramount Iteration,10,75,0.046711,7.379359
[MO833] Paramount Iteration,11,75,0.047197,7.379790
[MO833] Paramount Iteration,6,75,0.046730,7.379774
[MO833] Paramount Iteration,2,75,0.046875,7.379764
[MO833] Paramount Iteration,13,75,0.047115,7.379775
[MO833] Paramount Iteration,14,75,0.046737,7.379786
[MO833] Paramount Iteration,3,75,0.047239,7.380065
[MO833] Paramount Iteration,5,75,0.046984,7.376987
[MO833] Paramount Iteration,15,75,0.047119,7.380186
[MO833] Paramount Iteration,7,75,0.047215,7.380301
[MO833] Paramount Iteration,9,75,0.047227,7.380357
[MO833] Paramount Iteration,0,75,0.047202,7.380484
[MO833] Paramount Iteration,12,75,0.047172,7.380586
[MO833] Paramount Iteration,1,75,0.047399,7.380698
[MO833] Paramount Iteration,8,75,0.047411,7.380814
[MO833] Paramount Iteration,4,75,0.047163,7.377737
[MO833] Paramount Iteration,10,76,0.047891,7.427313
[MO833] Paramount Iteration,11,76,0.047542,7.427352
[MO833] Paramount Iteration,13,76,0.047612,7.427474
[MO833] Paramount Iteration,7,76,0.047359,7.427703
[MO833] Paramount Iteration,3,76,0.047584,7.427669
[MO833] Paramount Iteration,6,76,0.047926,7.427732
[MO833] Paramount Iteration,2,76,0.047839,7.427689
[MO833] Paramount Iteration,15,76,0.047499,7.427732
[MO833] Paramount Iteration,9,76,0.047436,7.427831
[MO833] Paramount Iteration,5,76,0.047631,7.424705
[MO833] Paramount Iteration,14,76,0.047953,7.427825
[MO833] Paramount Iteration,0,76,0.047399,7.427941
[MO833] Paramount Iteration,1,76,0.046976,7.427736
[MO833] Paramount Iteration,12,76,0.047438,7.428073
[MO833] Paramount Iteration,8,76,0.047235,7.428096
[MO833] Paramount Iteration,4,76,0.047508,7.425304
[MO833] Paramount Iteration,10,77,0.047211,7.474590
[MO833] Paramount Iteration,13,77,0.047215,7.474771
[MO833] Paramount Iteration,11,77,0.047416,7.474775
[MO833] Paramount Iteration,6,77,0.047151,7.474892
[MO833] Paramount Iteration,14,77,0.046923,7.474824
[MO833] Paramount Iteration,2,77,0.047131,7.474920
[MO833] Paramount Iteration,9,77,0.047196,7.475062
[MO833] Paramount Iteration,3,77,0.047349,7.475047
[MO833] Paramount Iteration,15,77,0.047281,7.475092
[MO833] Paramount Iteration,5,77,0.047178,7.471993
[MO833] Paramount Iteration,0,77,0.047152,7.475158
[MO833] Paramount Iteration,7,77,0.047497,7.475268
[MO833] Paramount Iteration,1,77,0.047366,7.475343
[MO833] Paramount Iteration,8,77,0.047250,7.475387
[MO833] Paramount Iteration,12,77,0.047343,7.475476
[MO833] Paramount Iteration,4,77,0.047099,7.472480
[MO833] Paramount Iteration,10,78,0.217197,7.691849
[MO833] Paramount Iteration,2,78,0.217161,7.692170
[MO833] Paramount Iteration,13,78,0.217345,7.692183
[MO833] Paramount Iteration,11,78,0.217469,7.692279
[MO833] Paramount Iteration,6,78,0.217411,7.692335
[MO833] Paramount Iteration,14,78,0.217458,7.692367
[MO833] Paramount Iteration,3,78,0.217408,7.692496
[MO833] Paramount Iteration,9,78,0.217471,7.692563
[MO833] Paramount Iteration,0,78,0.217470,7.692693
[MO833] Paramount Iteration,5,78,0.217495,7.689571
[MO833] Paramount Iteration,7,78,0.217466,7.692776
[MO833] Paramount Iteration,15,78,0.217585,7.692724
[MO833] Paramount Iteration,1,78,0.217468,7.692869
[MO833] Paramount Iteration,12,78,0.217421,7.692946
[MO833] Paramount Iteration,8,78,0.217544,7.692988
[MO833] Paramount Iteration,4,78,0.217674,7.690222
[MO833] Paramount Iteration,10,79,0.047696,7.739611
[MO833] Paramount Iteration,6,79,0.047277,7.739640
[MO833] Paramount Iteration,11,79,0.047429,7.739728
[MO833] Paramount Iteration,14,79,0.047296,7.739771
[MO833] Paramount Iteration,13,79,0.047615,7.739879
[MO833] Paramount Iteration,2,79,0.047616,7.739869
[MO833] Paramount Iteration,7,79,0.047182,7.739995
[MO833] Paramount Iteration,3,79,0.047484,7.740001
[MO833] Paramount Iteration,15,79,0.047300,7.740068
[MO833] Paramount Iteration,9,79,0.047532,7.740131
[MO833] Paramount Iteration,0,79,0.047518,7.740268
[MO833] Paramount Iteration,1,79,0.047390,7.740313
[MO833] Paramount Iteration,5,79,0.047528,7.737190
[MO833] Paramount Iteration,8,79,0.047535,7.740602
[MO833] Paramount Iteration,12,79,0.047703,7.740692
[MO833] Paramount Iteration,4,79,0.047434,7.737732
[MO833] Paramount Iteration,10,80,0.047231,7.786906
[MO833] Paramount Iteration,6,80,0.047583,7.787253
[MO833] Paramount Iteration,11,80,0.047585,7.787330
[MO833] Paramount Iteration,13,80,0.047402,7.787373
[MO833] Paramount Iteration,2,80,0.047428,7.787380
[MO833] Paramount Iteration,14,80,0.047549,7.787419
[MO833] Paramount Iteration,7,80,0.047692,7.787738
[MO833] Paramount Iteration,15,80,0.047563,7.787684
[MO833] Paramount Iteration,3,80,0.047706,7.787747
[MO833] Paramount Iteration,9,80,0.047559,7.787723
[MO833] Paramount Iteration,0,80,0.047520,7.787843
[MO833] Paramount Iteration,1,80,0.047373,7.787751
[MO833] Paramount Iteration,5,80,0.047430,7.784707
[MO833] Paramount Iteration,8,80,0.047472,7.788140
[MO833] Paramount Iteration,12,80,0.047432,7.788170
[MO833] Paramount Iteration,4,80,0.047528,7.785335
[MO833] Paramount Iteration,10,81,0.220423,8.007391
[MO833] Paramount Iteration,6,81,0.220358,8.007641
[MO833] Paramount Iteration,14,81,0.220072,8.007577
[MO833] Paramount Iteration,11,81,0.220317,8.007665
[MO833] Paramount Iteration,2,81,0.220151,8.007616
[MO833] Paramount Iteration,13,81,0.220270,8.007710
[MO833] Paramount Iteration,9,81,0.220019,8.007823
[MO833] Paramount Iteration,15,81,0.220131,8.007862
[MO833] Paramount Iteration,3,81,0.220114,8.007882
[MO833] Paramount Iteration,0,81,0.220088,8.007993
[MO833] Paramount Iteration,7,81,0.220231,8.008006
[MO833] Paramount Iteration,1,81,0.219994,8.007872
[MO833] Paramount Iteration,8,81,0.219811,8.008014
[MO833] Paramount Iteration,5,81,0.220157,8.004978
[MO833] Paramount Iteration,12,81,0.220162,8.008377
[MO833] Paramount Iteration,4,81,0.220142,8.005559
[MO833] Paramount Iteration,10,82,0.047223,8.054679
[MO833] Paramount Iteration,13,82,0.046943,8.054743
[MO833] Paramount Iteration,11,82,0.047090,8.054776
[MO833] Paramount Iteration,2,82,0.047166,8.054871
[MO833] Paramount Iteration,6,82,0.047278,8.054949
[MO833] Paramount Iteration,3,82,0.047021,8.054922
[MO833] Paramount Iteration,1,82,0.047085,8.055094
[MO833] Paramount Iteration,9,82,0.047166,8.055065
[MO833] Paramount Iteration,0,82,0.047090,8.055132
[MO833] Paramount Iteration,7,82,0.047135,8.055179
[MO833] Paramount Iteration,14,82,0.047488,8.055095
[MO833] Paramount Iteration,15,82,0.047305,8.055207
[MO833] Paramount Iteration,5,82,0.047080,8.052091
[MO833] Paramount Iteration,8,82,0.047258,8.055330
[MO833] Paramount Iteration,12,82,0.047019,8.055444
[MO833] Paramount Iteration,4,82,0.047059,8.052666
[MO833] Paramount Iteration,10,83,0.046983,8.101725
[MO833] Paramount Iteration,6,83,0.047054,8.102035
[MO833] Paramount Iteration,2,83,0.047054,8.102036
[MO833] Paramount Iteration,11,83,0.047359,8.102152
[MO833] Paramount Iteration,14,83,0.046960,8.102139
[MO833] Paramount Iteration,13,83,0.047456,8.102283
[MO833] Paramount Iteration,7,83,0.047224,8.102439
[MO833] Paramount Iteration,3,83,0.047429,8.102368
[MO833] Paramount Iteration,15,83,0.047165,8.102411
[MO833] Paramount Iteration,9,83,0.047476,8.102623
[MO833] Paramount Iteration,5,83,0.047414,8.099542
[MO833] Paramount Iteration,0,83,0.047579,8.102719
[MO833] Paramount Iteration,8,83,0.047432,8.102825
[MO833] Paramount Iteration,1,83,0.047699,8.102971
[MO833] Paramount Iteration,12,83,0.047508,8.103001
[MO833] Paramount Iteration,4,83,0.047559,8.100275
[MO833] Paramount Iteration,11,84,0.047319,8.149491
[MO833] Paramount Iteration,10,84,0.047814,8.149603
[MO833] Paramount Iteration,13,84,0.047394,8.149759
[MO833] Paramount Iteration,3,84,0.047358,8.149748
[MO833] Paramount Iteration,15,84,0.047323,8.149782
[MO833] Paramount Iteration,7,84,0.047429,8.149908
[MO833] Paramount Iteration,2,84,0.047809,8.149932
[MO833] Paramount Iteration,5,84,0.047269,8.146848
[MO833] Paramount Iteration,14,84,0.047781,8.150002
[MO833] Paramount Iteration,0,84,0.047311,8.150081
[MO833] Paramount Iteration,6,84,0.048044,8.150109
[MO833] Paramount Iteration,1,84,0.047158,8.150229
[MO833] Paramount Iteration,9,84,0.047465,8.150165
[MO833] Paramount Iteration,8,84,0.047398,8.150277
[MO833] Paramount Iteration,12,84,0.047333,8.150382
[MO833] Paramount Iteration,4,84,0.047040,8.147372
[MO833] Paramount Iteration,10,85,0.214608,8.364244
[MO833] Paramount Iteration,13,85,0.214612,8.364458
[MO833] Paramount Iteration,11,85,0.214964,8.364483
[MO833] Paramount Iteration,2,85,0.214539,8.364504
[MO833] Paramount Iteration,14,85,0.214507,8.364567
[MO833] Paramount Iteration,6,85,0.214508,8.364637
[MO833] Paramount Iteration,3,85,0.214932,8.364710
[MO833] Paramount Iteration,9,85,0.214458,8.364703
[MO833] Paramount Iteration,0,85,0.214742,8.364893
[MO833] Paramount Iteration,1,85,0.214552,8.364897
[MO833] Paramount Iteration,5,85,0.214884,8.361765
[MO833] Paramount Iteration,15,85,0.215061,8.364912
[MO833] Paramount Iteration,8,85,0.214809,8.365131
[MO833] Paramount Iteration,7,85,0.215200,8.365182
[MO833] Paramount Iteration,12,85,0.214864,8.365292
[MO833] Paramount Iteration,4,85,0.215106,8.362525
[MO833] Paramount Iteration,10,86,0.047481,8.411788
[MO833] Paramount Iteration,6,86,0.047419,8.412085
[MO833] Paramount Iteration,2,86,0.047498,8.412086
[MO833] Paramount Iteration,11,86,0.047603,8.412139
[MO833] Paramount Iteration,13,86,0.047664,8.412192
[MO833] Paramount Iteration,14,86,0.047665,8.412319
[MO833] Paramount Iteration,7,86,0.047253,8.412478
[MO833] Paramount Iteration,3,86,0.047727,8.412458
[MO833] Paramount Iteration,5,86,0.047529,8.409330
[MO833] Paramount Iteration,0,86,0.047695,8.412605
[MO833] Paramount Iteration,9,86,0.047862,8.412662
[MO833] Paramount Iteration,15,86,0.047753,8.412712
[MO833] Paramount Iteration,8,86,0.047609,8.412805
[MO833] Paramount Iteration,12,86,0.047536,8.412874
[MO833] Paramount Iteration,1,86,0.047913,8.412948
[MO833] Paramount Iteration,4,86,0.047445,8.410021
[MO833] Paramount Iteration,10,87,0.047727,8.459577
[MO833] Paramount Iteration,6,87,0.047508,8.459676
[MO833] Paramount Iteration,13,87,0.047537,8.459810
[MO833] Paramount Iteration,11,87,0.047628,8.459807
[MO833] Paramount Iteration,2,87,0.047639,8.459812
[MO833] Paramount Iteration,14,87,0.047370,8.459790
[MO833] Paramount Iteration,7,87,0.047491,8.459989
[MO833] Paramount Iteration,3,87,0.047631,8.460110
[MO833] Paramount Iteration,15,87,0.047347,8.460122
[MO833] Paramount Iteration,5,87,0.047709,8.457075
[MO833] Paramount Iteration,9,87,0.047580,8.460332
[MO833] Paramount Iteration,0,87,0.047758,8.460425
[MO833] Paramount Iteration,1,87,0.047456,8.460460
[MO833] Paramount Iteration,12,87,0.047742,8.460663
[MO833] Paramount Iteration,8,87,0.047901,8.460752
[MO833] Paramount Iteration,4,87,0.047722,8.457796
[MO833] Paramount Iteration,10,88,0.047105,8.506743
[MO833] Paramount Iteration,11,88,0.047068,8.506924
[MO833] Paramount Iteration,13,88,0.047152,8.507047
[MO833] Paramount Iteration,2,88,0.047209,8.507106
[MO833] Paramount Iteration,6,88,0.047546,8.507298
[MO833] Paramount Iteration,3,88,0.047109,8.507239
[MO833] Paramount Iteration,7,88,0.047390,8.507400
[MO833] Paramount Iteration,0,88,0.046982,8.507466
[MO833] Paramount Iteration,1,88,0.047004,8.507503
[MO833] Paramount Iteration,5,88,0.047223,8.504333
[MO833] Paramount Iteration,9,88,0.047143,8.507508
[MO833] Paramount Iteration,14,88,0.047567,8.507448
[MO833] Paramount Iteration,15,88,0.047359,8.507541
[MO833] Paramount Iteration,12,88,0.047017,8.507728
[MO833] Paramount Iteration,8,88,0.046954,8.507766
[MO833] Paramount Iteration,4,88,0.047201,8.505051
[MO833] Paramount Iteration,1,89,0.214093,8.721746
[MO833] Paramount Iteration,10,89,0.214998,8.721804
[MO833] Paramount Iteration,13,89,0.214826,8.721951
[MO833] Paramount Iteration,2,89,0.214733,8.721921
[MO833] Paramount Iteration,5,89,0.214472,8.718842
[MO833] Paramount Iteration,6,89,0.214608,8.721991
[MO833] Paramount Iteration,11,89,0.215045,8.722032
[MO833] Paramount Iteration,7,89,0.214756,8.722173
[MO833] Paramount Iteration,0,89,0.214686,8.722213
[MO833] Paramount Iteration,3,89,0.214888,8.722167
[MO833] Paramount Iteration,14,89,0.214652,8.722185
[MO833] Paramount Iteration,9,89,0.214721,8.722261
[MO833] Paramount Iteration,15,89,0.214824,8.722404
[MO833] Paramount Iteration,8,89,0.214701,8.722506
[MO833] Paramount Iteration,12,89,0.214836,8.722610
[MO833] Paramount Iteration,4,89,0.214575,8.719679
[MO833] Paramount Iteration,10,90,0.046961,8.768831
[MO833] Paramount Iteration,6,90,0.046882,8.768971
[MO833] Paramount Iteration,13,90,0.047012,8.769044
[MO833] Paramount Iteration,11,90,0.047028,8.769079
[MO833] Paramount Iteration,14,90,0.046781,8.768998
[MO833] Paramount Iteration,2,90,0.047141,8.769147
[MO833] Paramount Iteration,5,90,0.047330,8.766205
[MO833] Paramount Iteration,7,90,0.047242,8.769435
[MO833] Paramount Iteration,3,90,0.047221,8.769410
[MO833] Paramount Iteration,0,90,0.047241,8.769491
[MO833] Paramount Iteration,1,90,0.047691,8.769565
[MO833] Paramount Iteration,9,90,0.047239,8.769530
[MO833] Paramount Iteration,15,90,0.047085,8.769528
[MO833] Paramount Iteration,12,90,0.047138,8.769794
[MO833] Paramount Iteration,8,90,0.047332,8.769876
[MO833] Paramount Iteration,4,90,0.047154,8.766887
[MO833] Paramount Iteration,10,91,0.046687,8.815578
[MO833] Paramount Iteration,11,91,0.046621,8.815718
[MO833] Paramount Iteration,13,91,0.046708,8.815838
[MO833] Paramount Iteration,1,91,0.046317,8.815979
[MO833] Paramount Iteration,6,91,0.046910,8.815964
[MO833] Paramount Iteration,2,91,0.046774,8.816007
[MO833] Paramount Iteration,3,91,0.046661,8.816089
[MO833] Paramount Iteration,5,91,0.046715,8.812957
[MO833] Paramount Iteration,0,91,0.046625,8.816171
[MO833] Paramount Iteration,7,91,0.046681,8.816138
[MO833] Paramount Iteration,14,91,0.047053,8.816082
[MO833] Paramount Iteration,9,91,0.046587,8.816151
[MO833] Paramount Iteration,15,91,0.046686,8.816256
[MO833] Paramount Iteration,8,91,0.046600,8.816539
[MO833] Paramount Iteration,12,91,0.046771,8.816612
[MO833] Paramount Iteration,4,91,0.046769,8.813704
[MO833] Paramount Iteration,10,92,0.046977,8.862616
[MO833] Paramount Iteration,6,92,0.046881,8.862929
[MO833] Paramount Iteration,2,92,0.046765,8.862859
[MO833] Paramount Iteration,11,92,0.047192,8.862928
[MO833] Paramount Iteration,13,92,0.047135,8.863055
[MO833] Paramount Iteration,14,92,0.046958,8.863071
[MO833] Paramount Iteration,3,92,0.047088,8.863194
[MO833] Paramount Iteration,5,92,0.047137,8.860125
[MO833] Paramount Iteration,7,92,0.047183,8.863342
[MO833] Paramount Iteration,0,92,0.047174,8.863387
[MO833] Paramount Iteration,9,92,0.047268,8.863453
[MO833] Paramount Iteration,1,92,0.047485,8.863584
[MO833] Paramount Iteration,15,92,0.047229,8.863523
[MO833] Paramount Iteration,8,92,0.047039,8.863623
[MO833] Paramount Iteration,12,92,0.046993,8.863650
[MO833] Paramount Iteration,4,92,0.046915,8.860668
[MO833] Paramount Iteration,11,93,0.213998,9.076946
[MO833] Paramount Iteration,10,93,0.214401,9.077078
[MO833] Paramount Iteration,13,93,0.214046,9.077189
[MO833] Paramount Iteration,7,93,0.213906,9.077269
[MO833] Paramount Iteration,3,93,0.214156,9.077369
[MO833] Paramount Iteration,15,93,0.213848,9.077414
[MO833] Paramount Iteration,6,93,0.214553,9.077565
[MO833] Paramount Iteration,0,93,0.214111,9.077550
[MO833] Paramount Iteration,2,93,0.214559,9.077530
[MO833] Paramount Iteration,9,93,0.214049,9.077537
[MO833] Paramount Iteration,5,93,0.214273,9.074429
[MO833] Paramount Iteration,8,93,0.213993,9.077654
[MO833] Paramount Iteration,1,93,0.214071,9.077791
[MO833] Paramount Iteration,14,93,0.214622,9.077724
[MO833] Paramount Iteration,12,93,0.214156,9.077857
[MO833] Paramount Iteration,4,93,0.214310,9.075022
[MO833] Paramount Iteration,10,94,0.047906,9.125019
[MO833] Paramount Iteration,11,94,0.048325,9.125301
[MO833] Paramount Iteration,6,94,0.047764,9.125379
[MO833] Paramount Iteration,2,94,0.047778,9.125359
[MO833] Paramount Iteration,13,94,0.048170,9.125446
[MO833] Paramount Iteration,14,94,0.047688,9.125474
[MO833] Paramount Iteration,7,94,0.048390,9.125688
[MO833] Paramount Iteration,3,94,0.048233,9.125689
[MO833] Paramount Iteration,9,94,0.048253,9.125818
[MO833] Paramount Iteration,5,94,0.048189,9.122665
[MO833] Paramount Iteration,0,94,0.048254,9.125860
[MO833] Paramount Iteration,15,94,0.048328,9.125827
[MO833] Paramount Iteration,1,94,0.048136,9.126021
[MO833] Paramount Iteration,12,94,0.048230,9.126136
[MO833] Paramount Iteration,8,94,0.048487,9.126178
[MO833] Paramount Iteration,4,94,0.048337,9.123406
[MO833] Paramount Iteration,10,95,0.048723,9.173799
[MO833] Paramount Iteration,2,95,0.048660,9.174115
[MO833] Paramount Iteration,11,95,0.048857,9.174178
[MO833] Paramount Iteration,13,95,0.048678,9.174209
[MO833] Paramount Iteration,6,95,0.048869,9.174325
[MO833] Paramount Iteration,9,95,0.048493,9.174343
[MO833] Paramount Iteration,14,95,0.048721,9.174287
[MO833] Paramount Iteration,3,95,0.048726,9.174460
[MO833] Paramount Iteration,7,95,0.048880,9.174589
[MO833] Paramount Iteration,0,95,0.048743,9.174655
[MO833] Paramount Iteration,15,95,0.048707,9.174583
[MO833] Paramount Iteration,1,95,0.048517,9.174601
[MO833] Paramount Iteration,5,95,0.048841,9.171544
[MO833] Paramount Iteration,8,95,0.048518,9.174758
[MO833] Paramount Iteration,12,95,0.048665,9.174850
[MO833] Paramount Iteration,4,95,0.048713,9.172172
[MO833] Paramount Iteration,10,96,0.048444,9.222297
[MO833] Paramount Iteration,6,96,0.048246,9.222659
[MO833] Paramount Iteration,2,96,0.048458,9.222657
[MO833] Paramount Iteration,11,96,0.048513,9.222711
[MO833] Paramount Iteration,13,96,0.048541,9.222833
[MO833] Paramount Iteration,14,96,0.048496,9.222871
[MO833] Paramount Iteration,3,96,0.048396,9.222901
[MO833] Paramount Iteration,7,96,0.048387,9.222997
[MO833] Paramount Iteration,9,96,0.048705,9.223078
[MO833] Paramount Iteration,0,96,0.048481,9.223146
[MO833] Paramount Iteration,1,96,0.048391,9.223134
[MO833] Paramount Iteration,5,96,0.048495,9.220078
[MO833] Paramount Iteration,15,96,0.048603,9.223235
[MO833] Paramount Iteration,8,96,0.048540,9.223356
[MO833] Paramount Iteration,12,96,0.048479,9.223373
[MO833] Paramount Iteration,4,96,0.048455,9.220699
[MO833] Paramount Iteration,13,97,0.220163,9.443078
[MO833] Paramount Iteration,6,97,0.220672,9.443409
[MO833] Paramount Iteration,10,97,0.221025,9.443383
[MO833] Paramount Iteration,7,97,0.220506,9.443523
[MO833] Paramount Iteration,5,97,0.220229,9.440344
[MO833] Paramount Iteration,2,97,0.220751,9.443490
[MO833] Paramount Iteration,11,97,0.220792,9.443522
[MO833] Paramount Iteration,3,97,0.220558,9.443535
[MO833] Paramount Iteration,9,97,0.220456,9.443565
[MO833] Paramount Iteration,14,97,0.220554,9.443511
[MO833] Paramount Iteration,15,97,0.220344,9.443626
[MO833] Paramount Iteration,12,97,0.220360,9.443781
[MO833] Paramount Iteration,0,97,0.220651,9.443843
[MO833] Paramount Iteration,1,97,0.220700,9.443945
[MO833] Paramount Iteration,8,97,0.220573,9.443970
[MO833] Paramount Iteration,4,97,0.220364,9.441115
[MO833] Paramount Iteration,10,98,0.047614,9.491065
[MO833] Paramount Iteration,2,98,0.047665,9.491256
[MO833] Paramount Iteration,13,98,0.048212,9.491373
[MO833] Paramount Iteration,14,98,0.047740,9.491340
[MO833] Paramount Iteration,6,98,0.048016,9.491503
[MO833] Paramount Iteration,11,98,0.047909,9.491502
[MO833] Paramount Iteration,3,98,0.047994,9.491539
[MO833] Paramount Iteration,15,98,0.048052,9.491717
[MO833] Paramount Iteration,9,98,0.048160,9.491756
[MO833] Paramount Iteration,0,98,0.047918,9.491823
[MO833] Paramount Iteration,5,98,0.048221,9.488650
[MO833] Paramount Iteration,7,98,0.048415,9.491957
[MO833] Paramount Iteration,8,98,0.047971,9.492023
[MO833] Paramount Iteration,1,98,0.048110,9.492108
[MO833] Paramount Iteration,12,98,0.048285,9.492112
[MO833] Paramount Iteration,4,98,0.048099,9.489271
[MO833] Paramount Iteration,10,99,0.048520,9.539613
[MO833] Paramount Iteration,6,99,0.048237,9.539833
[MO833] Paramount Iteration,14,99,0.048384,9.539812
[MO833] Paramount Iteration,2,99,0.048575,9.539910
[MO833] Paramount Iteration,11,99,0.048446,9.539986
[MO833] Paramount Iteration,13,99,0.048535,9.540000
[MO833] Paramount Iteration,3,99,0.048599,9.540186
[MO833] Paramount Iteration,7,99,0.048311,9.540289
[MO833] Paramount Iteration,15,99,0.048524,9.540287
[MO833] Paramount Iteration,9,99,0.048546,9.540336
[MO833] Paramount Iteration,5,99,0.048467,9.537210
[MO833] Paramount Iteration,0,99,0.048532,9.540411
[MO833] Paramount Iteration,1,99,0.048303,9.540499
[MO833] Paramount Iteration,12,99,0.048489,9.540651
[MO833] Paramount Iteration,8,99,0.048570,9.540651
[MO833] Paramount Iteration,4,99,0.048366,9.537733
     100   0.97370899   0.44244116    20.501568    22.404572    4.6905307 
[MO833] Paramount Iteration,8,100,0.236575,9.777273
[MO833] Paramount Iteration,1,100,0.236721,9.777270
[MO833] Paramount Iteration,10,100,0.237611,9.777253
[MO833] Paramount Iteration,6,100,0.237447,9.777364
[MO833] Paramount Iteration,2,100,0.237281,9.777278
[MO833] Paramount Iteration,12,100,0.236599,9.777298
[MO833] Paramount Iteration,9,100,0.236905,9.777274
[MO833] Paramount Iteration,4,100,0.236393,9.774176
[MO833] Paramount Iteration,14,100,0.237399,9.777297
[MO833] Paramount Iteration,0,100,0.236866,9.777325
[MO833] Paramount Iteration,11,100,0.237240,9.777263
[MO833] Paramount Iteration,7,100,0.237055,9.777364
[MO833] Paramount Iteration,3,100,0.237043,9.777277
[MO833] Paramount Iteration,13,100,0.237210,9.777295
[MO833] Paramount Iteration,5,100,0.236879,9.774178
[MO833] Paramount Iteration,15,100,0.236961,9.777298
Loop time of 8.90163 on 16 procs for 100 steps with 2048000 atoms

Performance: 11647.311 tau/day, 11.234 timesteps/s
94.3% CPU use with 16 MPI tasks x 1 OpenMP threads

MPI task timing breakdown:
Section |  min time  |  avg time  |  max time  |%varavg| %total
---------------------------------------------------------------
Pair    | 1.57       | 1.8179     | 2.0229     |   9.4 | 20.42
Bond    | 0.63368    | 0.84858    | 1.0041     |  12.4 |  9.53
Neigh   | 3.8592     | 3.8801     | 3.894      |   0.4 | 43.59
Comm    | 0.70966    | 1.0508     | 1.4864     |  23.0 | 11.80
Output  | 0.0013802  | 0.0020492  | 0.0025268  |   0.6 |  0.02
Modify  | 0.93886    | 0.99676    | 1.0531     |   3.4 | 11.20
Other   |            | 0.3056     |            |       |  3.43

Nlocal:    128000 ave 128092 max 127945 min
Histogram: 1 4 3 0 3 3 1 0 0 1
Nghost:    24499.1 ave 24615 max 24407 min
Histogram: 3 0 1 1 6 1 1 1 1 1
Neighs:    623046 ave 623809 max 622608 min
Histogram: 3 3 2 0 3 3 0 1 0 1

Total # of neighbors = 9968733
Ave neighs/atom = 4.86755
Ave special neighs/atom = 1.98
Neighbor list builds = 26
Dangerous builds = 0
Total wall time: 0:00:09
[MO833] Beta,5,0.102313
[MO833] PI avg,5,0.089014,100
[MO833] Beta,6,0.102669
[MO833] PI avg,6,0.089016,100
[MO833] Beta,3,0.102693
[MO833] Beta,1,0.102683
[MO833] PI avg,3,0.089014,100
[MO833] Beta,10,0.102694
[MO833] PI avg,10,0.089014,100
[MO833] PI avg,1,0.089015,100
[MO833] Beta,7,0.102684
[MO833] PI avg,7,0.089016,100
[MO833] Beta,14,0.102685
[MO833] Beta,4,0.102365
[MO833] PI avg,4,0.089014,100
[MO833] Beta,11,0.102708
[MO833] PI avg,14,0.089016,100
[MO833] PI avg,11,0.089014,100
[MO833] Beta,9,0.102714
[MO833] PI avg,9,0.089014,100
[MO833] Beta,0,0.102738
[MO833] PI avg,0,0.089015,100
[MO833] Total time,9.816059
[MO833] Beta,13,0.102727
[MO833] PI avg,13,0.089014,100
[MO833] Beta,15,0.102731
[MO833] PI avg,15,0.089016,100
[MO833] Beta,12,0.102774
[MO833] PI avg,12,0.089014,100
[MO833] Beta,8,0.102784
[MO833] PI avg,8,0.089015,100
[MO833] Beta,2,0.102770
[MO833] PI avg,2,0.089014,100
