LAMMPS (3 Mar 2020)
OMP_NUM_THREADS environment is not set. Defaulting to 1 thread. (src/comm.cpp:94)
  using 1 OpenMP thread(s) per MPI task
Reading data file ...
  orthogonal box = (0 0 0) to (3.1 3.1 3.1)
  2 by 2 by 4 MPI processor grid
  reading atoms ...
  3 atoms
  scanning bonds ...
  2 = max bonds/atom
  scanning angles ...
  1 = max angles/atom
  reading bonds ...
  2 bonds
  reading angles ...
  1 angles
Finding 1-2 1-3 1-4 neighbors ...
  special bond factors lj:   0          0          0         
  special bond factors coul: 0          0          0         
  2 = max # of 1-2 neighbors
  1 = max # of 1-3 neighbors
  1 = max # of 1-4 neighbors
  2 = max # of special neighbors
  special bonds CPU = 0.00439596 secs
  read_data CPU = 0.020005 secs
Replicating atoms ...
  orthogonal box = (0 0 0) to (62 62 62)
  2 by 2 by 4 MPI processor grid
  24000 atoms
  16000 bonds
  8000 angles
Finding 1-2 1-3 1-4 neighbors ...
  special bond factors lj:   0          0          0         
  special bond factors coul: 0          0          0         
  2 = max # of 1-2 neighbors
  1 = max # of 1-3 neighbors
  1 = max # of 1-4 neighbors
  2 = max # of special neighbors
  special bonds CPU = 0.00552917 secs
  replicate CPU = 0.0108039 secs
Displacing atoms ...
Changing box ...
  orthogonal box = (-31 0 0) to (31 62 62)
Changing box ...
  orthogonal box = (-31 -31 0) to (31 31 62)
Changing box ...
  orthogonal box = (-31 -31 -31) to (31 31 31)
Changing box ...
  orthogonal box = (-31 -31 -124) to (31 31 124)
16000 atoms in group hydrogen
8000 atoms in group oxygen
Finding SHAKE clusters ...
  0 = # of size 2 clusters
  0 = # of size 3 clusters
  0 = # of size 4 clusters
  8000 = # of frozen angles
  find clusters CPU = 0.00381351 secs
PPPM initialization ...
  extracting TIP4P info from pair style
  using 12-bit tables for long-range coulomb (src/kspace.cpp:332)
  G vector (1/distance) = 0.230756
  grid = 45 45 120
  stencil order = 5
  estimated absolute RMS force accuracy = 0.00315988
  estimated relative force accuracy = 9.51587e-06
  using double precision KISS FFT
  3d grid and FFT values/proc = 31117 16200
Neighbor list info ...
  update every 1 steps, delay 0 steps, check yes
  max neighbors/atom: 2000, page size: 100000
  master list distance cutoff = 15.3092
  ghost atom cutoff = 15.3092
  binsize = 7.6546, bins = 9 9 33
  1 neighbor lists, perpetual/occasional/extra = 1 0 0
  (1) pair lj/cut/tip4p/long, perpetual
      attributes: half, newton on
      pair build: half/bin/newton
      stencil: half/bin/3d/newton
      bin: standard
Setting up Verlet run ...
  Unit style    : real
  Current step  : 0
  Time step     : 2
Per MPI rank memory allocation (min/avg/max) = 12.52 | 21.19 | 30.55 Mbytes
Step Temp f_TAve Press f_PAve v_xyArea Lz f_st 
       0    450.00938            0    13733.809            0         3844          248            0 
[MO833] Paramount Iteration,0,1,0.093093,0.491912
[MO833] Paramount Iteration,3,1,0.093145,0.492232
[MO833] Paramount Iteration,4,1,0.093057,0.491821
[MO833] Paramount Iteration,6,1,0.093106,0.491924
[MO833] Paramount Iteration,14,1,0.093142,0.491821
[MO833] Paramount Iteration,8,1,0.093109,0.491920
[MO833] Paramount Iteration,12,1,0.093059,0.491485
[MO833] Paramount Iteration,1,1,0.093105,0.491931
[MO833] Paramount Iteration,2,1,0.093159,0.492241
[MO833] Paramount Iteration,5,1,0.093081,0.491843
[MO833] Paramount Iteration,7,1,0.093095,0.491914
[MO833] Paramount Iteration,15,1,0.093140,0.491811
[MO833] Paramount Iteration,9,1,0.093119,0.491930
[MO833] Paramount Iteration,10,1,0.093150,0.491935
[MO833] Paramount Iteration,13,1,0.093071,0.491755
[MO833] Paramount Iteration,11,1,0.093140,0.491932
[MO833] Paramount Iteration,0,2,0.092896,0.585079
[MO833] Paramount Iteration,3,2,0.093130,0.585387
[MO833] Paramount Iteration,4,2,0.093144,0.584994
[MO833] Paramount Iteration,6,2,0.093145,0.585089
[MO833] Paramount Iteration,14,2,0.093124,0.584961
[MO833] Paramount Iteration,12,2,0.093107,0.584650
[MO833] Paramount Iteration,1,2,0.093152,0.585099
[MO833] Paramount Iteration,2,2,0.093102,0.585396
[MO833] Paramount Iteration,5,2,0.093088,0.585007
[MO833] Paramount Iteration,7,2,0.093098,0.585085
[MO833] Paramount Iteration,15,2,0.093084,0.584952
[MO833] Paramount Iteration,8,2,0.093149,0.585125
[MO833] Paramount Iteration,10,2,0.093137,0.585089
[MO833] Paramount Iteration,13,2,0.093149,0.584919
[MO833] Paramount Iteration,9,2,0.093189,0.585134
[MO833] Paramount Iteration,11,2,0.093087,0.585088
[MO833] Paramount Iteration,0,3,0.093550,0.678917
[MO833] Paramount Iteration,3,3,0.093815,0.679222
[MO833] Paramount Iteration,4,3,0.093816,0.678834
[MO833] Paramount Iteration,6,3,0.093844,0.678948
[MO833] Paramount Iteration,14,3,0.093856,0.678829
[MO833] Paramount Iteration,8,3,0.093745,0.678924
[MO833] Paramount Iteration,10,3,0.093809,0.678911
[MO833] Paramount Iteration,12,3,0.093776,0.678483
[MO833] Paramount Iteration,1,3,0.093824,0.678936
[MO833] Paramount Iteration,2,3,0.093789,0.679232
[MO833] Paramount Iteration,5,3,0.093783,0.678844
[MO833] Paramount Iteration,7,3,0.093792,0.678938
[MO833] Paramount Iteration,15,3,0.093803,0.678820
[MO833] Paramount Iteration,9,3,0.093798,0.678944
[MO833] Paramount Iteration,11,3,0.093755,0.678908
[MO833] Paramount Iteration,13,3,0.093822,0.678751
[MO833] Paramount Iteration,0,4,0.093030,0.772213
[MO833] Paramount Iteration,3,4,0.093308,0.772549
[MO833] Paramount Iteration,4,4,0.093275,0.772131
[MO833] Paramount Iteration,6,4,0.093284,0.772243
[MO833] Paramount Iteration,14,4,0.093280,0.772122
[MO833] Paramount Iteration,8,4,0.093240,0.772228
[MO833] Paramount Iteration,12,4,0.093256,0.771789
[MO833] Paramount Iteration,1,4,0.093284,0.772232
[MO833] Paramount Iteration,2,4,0.093279,0.772557
[MO833] Paramount Iteration,5,4,0.093246,0.772143
[MO833] Paramount Iteration,7,4,0.093235,0.772233
[MO833] Paramount Iteration,15,4,0.093230,0.772114
[MO833] Paramount Iteration,9,4,0.093286,0.772240
[MO833] Paramount Iteration,10,4,0.093331,0.772252
[MO833] Paramount Iteration,13,4,0.093297,0.772056
[MO833] Paramount Iteration,11,4,0.093281,0.772251
[MO833] Paramount Iteration,0,5,0.097185,0.869664
[MO833] Paramount Iteration,1,5,0.097441,0.869683
[MO833] Paramount Iteration,3,5,0.097410,0.869978
[MO833] Paramount Iteration,4,5,0.097470,0.869622
[MO833] Paramount Iteration,6,5,0.097467,0.869726
[MO833] Paramount Iteration,14,5,0.097474,0.869611
[MO833] Paramount Iteration,8,5,0.097383,0.869669
[MO833] Paramount Iteration,10,5,0.097419,0.869682
[MO833] Paramount Iteration,12,5,0.097449,0.869290
[MO833] Paramount Iteration,2,5,0.097425,0.870027
[MO833] Paramount Iteration,5,5,0.097426,0.869636
[MO833] Paramount Iteration,7,5,0.097425,0.869728
[MO833] Paramount Iteration,15,5,0.097421,0.869599
[MO833] Paramount Iteration,9,5,0.097429,0.869679
[MO833] Paramount Iteration,11,5,0.097367,0.869681
[MO833] Paramount Iteration,13,5,0.097492,0.869559
[MO833] Paramount Iteration,0,6,0.092582,0.962526
[MO833] Paramount Iteration,3,6,0.092826,0.962830
[MO833] Paramount Iteration,4,6,0.092800,0.962445
[MO833] Paramount Iteration,6,6,0.092797,0.962544
[MO833] Paramount Iteration,14,6,0.092795,0.962416
[MO833] Paramount Iteration,8,6,0.092814,0.962537
[MO833] Paramount Iteration,10,6,0.092845,0.962539
[MO833] Paramount Iteration,12,6,0.092754,0.962094
[MO833] Paramount Iteration,1,6,0.092844,0.962546
[MO833] Paramount Iteration,2,6,0.092818,0.962868
[MO833] Paramount Iteration,5,6,0.092753,0.962458
[MO833] Paramount Iteration,7,6,0.092751,0.962539
[MO833] Paramount Iteration,15,6,0.092740,0.962406
[MO833] Paramount Iteration,9,6,0.092861,0.962549
[MO833] Paramount Iteration,11,6,0.092793,0.962537
[MO833] Paramount Iteration,13,6,0.092795,0.962362
[MO833] Paramount Iteration,0,7,0.174838,1.137632
[MO833] Paramount Iteration,2,7,0.175082,1.137969
[MO833] Paramount Iteration,4,7,0.175128,1.137595
[MO833] Paramount Iteration,6,7,0.175129,1.137685
[MO833] Paramount Iteration,8,7,0.175028,1.137617
[MO833] Paramount Iteration,10,7,0.175093,1.137644
[MO833] Paramount Iteration,12,7,0.175090,1.137235
[MO833] Paramount Iteration,1,7,0.175107,1.137667
[MO833] Paramount Iteration,3,7,0.175115,1.137964
[MO833] Paramount Iteration,5,7,0.175090,1.137605
[MO833] Paramount Iteration,7,7,0.175078,1.137675
[MO833] Paramount Iteration,14,7,0.175139,1.137565
[MO833] Paramount Iteration,9,7,0.175072,1.137628
[MO833] Paramount Iteration,11,7,0.175042,1.137642
[MO833] Paramount Iteration,13,7,0.175131,1.137503
[MO833] Paramount Iteration,15,7,0.175089,1.137555
[MO833] Paramount Iteration,0,8,0.096794,1.234468
[MO833] Paramount Iteration,4,8,0.096771,1.234386
[MO833] Paramount Iteration,12,8,0.096760,1.234044
[MO833] Paramount Iteration,1,8,0.096749,1.234486
[MO833] Paramount Iteration,3,8,0.096806,1.234788
[MO833] Paramount Iteration,5,8,0.096751,1.234405
[MO833] Paramount Iteration,6,8,0.096809,1.234508
[MO833] Paramount Iteration,14,8,0.096789,1.234362
[MO833] Paramount Iteration,8,8,0.096799,1.234468
[MO833] Paramount Iteration,10,8,0.096823,1.234474
[MO833] Paramount Iteration,13,8,0.096803,1.234314
[MO833] Paramount Iteration,2,8,0.096792,1.234797
[MO833] Paramount Iteration,7,8,0.096762,1.234501
[MO833] Paramount Iteration,15,8,0.096739,1.234350
[MO833] Paramount Iteration,9,8,0.096840,1.234477
[MO833] Paramount Iteration,11,8,0.096773,1.234471
[MO833] Paramount Iteration,0,9,0.096549,1.331047
[MO833] Paramount Iteration,3,9,0.096572,1.331378
[MO833] Paramount Iteration,4,9,0.096575,1.330987
[MO833] Paramount Iteration,6,9,0.096560,1.331079
[MO833] Paramount Iteration,8,9,0.096524,1.331045
[MO833] Paramount Iteration,12,9,0.096544,1.330639
[MO833] Paramount Iteration,1,9,0.096508,1.331063
[MO833] Paramount Iteration,2,9,0.096546,1.331386
[MO833] Paramount Iteration,5,9,0.096529,1.331001
[MO833] Paramount Iteration,7,9,0.096513,1.331073
[MO833] Paramount Iteration,14,9,0.096586,1.330960
[MO833] Paramount Iteration,9,9,0.096567,1.331054
[MO833] Paramount Iteration,10,9,0.096579,1.331061
[MO833] Paramount Iteration,13,9,0.096586,1.330907
[MO833] Paramount Iteration,15,9,0.096533,1.330948
[MO833] Paramount Iteration,11,9,0.096529,1.331061
[MO833] Paramount Iteration,0,10,0.096555,1.427627
[MO833] Paramount Iteration,3,10,0.096560,1.427956
[MO833] Paramount Iteration,4,10,0.096533,1.427543
[MO833] Paramount Iteration,6,10,0.096544,1.427635
[MO833] Paramount Iteration,14,10,0.096520,1.427489
[MO833] Paramount Iteration,8,10,0.096499,1.427596
[MO833] Paramount Iteration,10,10,0.096534,1.427609
[MO833] Paramount Iteration,12,10,0.096494,1.427184
[MO833] Paramount Iteration,1,10,0.096504,1.427642
[MO833] Paramount Iteration,2,10,0.096531,1.427961
[MO833] Paramount Iteration,5,10,0.096492,1.427553
[MO833] Paramount Iteration,7,10,0.096496,1.427629
[MO833] Paramount Iteration,15,10,0.096465,1.427477
[MO833] Paramount Iteration,9,10,0.096540,1.427605
[MO833] Paramount Iteration,11,10,0.096485,1.427609
[MO833] Paramount Iteration,13,10,0.096537,1.427453
[MO833] Paramount Iteration,0,11,0.178666,1.606543
[MO833] Paramount Iteration,2,11,0.178874,1.606878
[MO833] Paramount Iteration,4,11,0.178943,1.606506
[MO833] Paramount Iteration,6,11,0.178948,1.606594
[MO833] Paramount Iteration,8,11,0.178868,1.606534
[MO833] Paramount Iteration,10,11,0.178931,1.606558
[MO833] Paramount Iteration,12,11,0.178926,1.606160
[MO833] Paramount Iteration,1,11,0.178907,1.606562
[MO833] Paramount Iteration,3,11,0.178892,1.606865
[MO833] Paramount Iteration,5,11,0.178961,1.606563
[MO833] Paramount Iteration,7,11,0.178900,1.606587
[MO833] Paramount Iteration,14,11,0.178995,1.606498
[MO833] Paramount Iteration,9,11,0.178911,1.606544
[MO833] Paramount Iteration,11,11,0.178882,1.606559
[MO833] Paramount Iteration,13,11,0.178972,1.606432
[MO833] Paramount Iteration,15,11,0.178930,1.606476
[MO833] Paramount Iteration,0,12,0.098819,1.705643
[MO833] Paramount Iteration,2,12,0.099058,1.705974
[MO833] Paramount Iteration,1,12,0.099079,1.705657
[MO833] Paramount Iteration,3,12,0.099079,1.705970
[MO833] Paramount Iteration,4,12,0.099080,1.705609
[MO833] Paramount Iteration,6,12,0.099086,1.705698
[MO833] Paramount Iteration,14,12,0.099070,1.705580
[MO833] Paramount Iteration,8,12,0.099041,1.705630
[MO833] Paramount Iteration,10,12,0.099080,1.705652
[MO833] Paramount Iteration,12,12,0.099050,1.705262
[MO833] Paramount Iteration,5,12,0.099030,1.705620
[MO833] Paramount Iteration,7,12,0.099040,1.705693
[MO833] Paramount Iteration,15,12,0.099014,1.705570
[MO833] Paramount Iteration,9,12,0.099085,1.705639
[MO833] Paramount Iteration,11,12,0.099025,1.705650
[MO833] Paramount Iteration,13,12,0.099091,1.705530
[MO833] Paramount Iteration,0,13,0.098504,1.804415
[MO833] Paramount Iteration,4,13,0.098730,1.804360
[MO833] Paramount Iteration,6,13,0.098744,1.804454
[MO833] Paramount Iteration,12,13,0.098695,1.804012
[MO833] Paramount Iteration,1,13,0.098764,1.804436
[MO833] Paramount Iteration,2,13,0.098793,1.804804
[MO833] Paramount Iteration,5,13,0.098704,1.804376
[MO833] Paramount Iteration,7,13,0.098695,1.804447
[MO833] Paramount Iteration,14,13,0.098738,1.804331
[MO833] Paramount Iteration,8,13,0.098731,1.804419
[MO833] Paramount Iteration,10,13,0.098783,1.804444
[MO833] Paramount Iteration,13,13,0.098740,1.804280
[MO833] Paramount Iteration,3,13,0.098812,1.804801
[MO833] Paramount Iteration,15,13,0.098691,1.804320
[MO833] Paramount Iteration,9,13,0.098779,1.804431
[MO833] Paramount Iteration,11,13,0.098736,1.804442
[MO833] Paramount Iteration,4,14,0.179750,1.984132
[MO833] Paramount Iteration,6,14,0.179760,1.984224
[MO833] Paramount Iteration,14,14,0.179751,1.984093
[MO833] Paramount Iteration,12,14,0.179700,1.983760
[MO833] Paramount Iteration,0,14,0.179761,1.984207
[MO833] Paramount Iteration,3,14,0.179750,1.984569
[MO833] Paramount Iteration,5,14,0.179693,1.984144
[MO833] Paramount Iteration,7,14,0.179712,1.984217
[MO833] Paramount Iteration,15,14,0.179701,1.984085
[MO833] Paramount Iteration,8,14,0.179707,1.984181
[MO833] Paramount Iteration,10,14,0.179764,1.984222
[MO833] Paramount Iteration,13,14,0.179745,1.984032
[MO833] Paramount Iteration,1,14,0.179719,1.984224
[MO833] Paramount Iteration,2,14,0.179733,1.984574
[MO833] Paramount Iteration,9,14,0.179751,1.984191
[MO833] Paramount Iteration,11,14,0.179712,1.984218
[MO833] Paramount Iteration,0,15,0.098445,2.082752
[MO833] Paramount Iteration,3,15,0.098499,2.083085
[MO833] Paramount Iteration,4,15,0.098552,2.082705
[MO833] Paramount Iteration,12,15,0.098532,2.082340
[MO833] Paramount Iteration,1,15,0.098532,2.082767
[MO833] Paramount Iteration,2,15,0.098504,2.083124
[MO833] Paramount Iteration,5,15,0.098532,2.082716
[MO833] Paramount Iteration,6,15,0.098544,2.082777
[MO833] Paramount Iteration,14,15,0.098557,2.082663
[MO833] Paramount Iteration,8,15,0.098491,2.082727
[MO833] Paramount Iteration,10,15,0.098539,2.082778
[MO833] Paramount Iteration,13,15,0.098569,2.082608
[MO833] Paramount Iteration,7,15,0.098497,2.082771
[MO833] Paramount Iteration,15,15,0.098504,2.082654
[MO833] Paramount Iteration,9,15,0.098536,2.082738
[MO833] Paramount Iteration,11,15,0.098490,2.082778
[MO833] Paramount Iteration,0,16,0.098923,2.181750
[MO833] Paramount Iteration,2,16,0.098954,2.182097
[MO833] Paramount Iteration,4,16,0.098962,2.181687
[MO833] Paramount Iteration,6,16,0.098981,2.181770
[MO833] Paramount Iteration,14,16,0.098979,2.181654
[MO833] Paramount Iteration,8,16,0.098961,2.181741
[MO833] Paramount Iteration,10,16,0.098967,2.181761
[MO833] Paramount Iteration,12,16,0.098949,2.181339
[MO833] Paramount Iteration,1,16,0.098989,2.181769
[MO833] Paramount Iteration,3,16,0.098990,2.182094
[MO833] Paramount Iteration,5,16,0.098935,2.181702
[MO833] Paramount Iteration,7,16,0.098915,2.181763
[MO833] Paramount Iteration,15,16,0.098929,2.181645
[MO833] Paramount Iteration,9,16,0.099006,2.181753
[MO833] Paramount Iteration,11,16,0.098915,2.181758
[MO833] Paramount Iteration,13,16,0.098992,2.181609
[MO833] Paramount Iteration,3,17,0.179908,2.362020
[MO833] Paramount Iteration,4,17,0.179900,2.361611
[MO833] Paramount Iteration,6,17,0.179902,2.361682
[MO833] Paramount Iteration,12,17,0.179867,2.361257
[MO833] Paramount Iteration,0,17,0.179838,2.361675
[MO833] Paramount Iteration,2,17,0.179893,2.362028
[MO833] Paramount Iteration,5,17,0.179843,2.361625
[MO833] Paramount Iteration,7,17,0.179855,2.361677
[MO833] Paramount Iteration,14,17,0.179920,2.361585
[MO833] Paramount Iteration,8,17,0.179868,2.361666
[MO833] Paramount Iteration,10,17,0.179937,2.361707
[MO833] Paramount Iteration,13,17,0.179910,2.361526
[MO833] Paramount Iteration,1,17,0.179913,2.361694
[MO833] Paramount Iteration,15,17,0.179870,2.361576
[MO833] Paramount Iteration,9,17,0.179912,2.361675
[MO833] Paramount Iteration,11,17,0.179885,2.361705
[MO833] Paramount Iteration,3,18,0.099338,2.461377
[MO833] Paramount Iteration,4,18,0.099339,2.460971
[MO833] Paramount Iteration,6,18,0.099337,2.461038
[MO833] Paramount Iteration,14,18,0.099337,2.460934
[MO833] Paramount Iteration,8,18,0.099292,2.461014
[MO833] Paramount Iteration,12,18,0.099304,2.460613
[MO833] Paramount Iteration,0,18,0.099262,2.461049
[MO833] Paramount Iteration,2,18,0.099340,2.461412
[MO833] Paramount Iteration,5,18,0.099293,2.460984
[MO833] Paramount Iteration,7,18,0.099287,2.461033
[MO833] Paramount Iteration,15,18,0.099282,2.460923
[MO833] Paramount Iteration,9,18,0.099337,2.461024
[MO833] Paramount Iteration,10,18,0.099345,2.461062
[MO833] Paramount Iteration,13,18,0.099347,2.460881
[MO833] Paramount Iteration,1,18,0.099353,2.461062
[MO833] Paramount Iteration,11,18,0.099294,2.461061
[MO833] Paramount Iteration,0,19,0.099847,2.560991
[MO833] Paramount Iteration,2,19,0.099902,2.561333
[MO833] Paramount Iteration,4,19,0.099931,2.560923
[MO833] Paramount Iteration,6,19,0.099934,2.560990
[MO833] Paramount Iteration,14,19,0.099935,2.560885
[MO833] Paramount Iteration,8,19,0.099911,2.560979
[MO833] Paramount Iteration,10,19,0.099917,2.560992
[MO833] Paramount Iteration,12,19,0.099902,2.560563
[MO833] Paramount Iteration,1,19,0.099930,2.561005
[MO833] Paramount Iteration,3,19,0.099935,2.561329
[MO833] Paramount Iteration,5,19,0.099911,2.560935
[MO833] Paramount Iteration,7,19,0.099890,2.560985
[MO833] Paramount Iteration,15,19,0.099883,2.560875
[MO833] Paramount Iteration,9,19,0.099957,2.560991
[MO833] Paramount Iteration,11,19,0.099863,2.560990
[MO833] Paramount Iteration,13,19,0.099942,2.560831
[MO833] Paramount Iteration,0,20,0.182748,2.743841
[MO833] Paramount Iteration,2,20,0.182812,2.744180
[MO833] Paramount Iteration,4,20,0.182842,2.743787
[MO833] Paramount Iteration,6,20,0.182851,2.743855
[MO833] Paramount Iteration,14,20,0.182848,2.743747
[MO833] Paramount Iteration,10,20,0.182858,2.743861
[MO833] Paramount Iteration,12,20,0.182807,2.743419
[MO833] Paramount Iteration,1,20,0.182835,2.743858
[MO833] Paramount Iteration,3,20,0.182830,2.744176
[MO833] Paramount Iteration,5,20,0.182812,2.743797
[MO833] Paramount Iteration,7,20,0.182801,2.743850
[MO833] Paramount Iteration,15,20,0.182793,2.743736
[MO833] Paramount Iteration,8,20,0.182796,2.743831
[MO833] Paramount Iteration,11,20,0.182790,2.743860
[MO833] Paramount Iteration,13,20,0.182848,2.743687
[MO833] Paramount Iteration,9,20,0.182839,2.743840
[MO833] Paramount Iteration,3,21,0.101166,2.845360
[MO833] Paramount Iteration,4,21,0.101174,2.844982
[MO833] Paramount Iteration,6,21,0.101163,2.845035
[MO833] Paramount Iteration,14,21,0.101174,2.844936
[MO833] Paramount Iteration,10,21,0.101188,2.845063
[MO833] Paramount Iteration,12,21,0.101155,2.844626
[MO833] Paramount Iteration,0,21,0.101100,2.845050
[MO833] Paramount Iteration,2,21,0.101142,2.845370
[MO833] Paramount Iteration,5,21,0.101148,2.844997
[MO833] Paramount Iteration,7,21,0.101112,2.845025
[MO833] Paramount Iteration,15,21,0.101111,2.844927
[MO833] Paramount Iteration,8,21,0.101147,2.845036
[MO833] Paramount Iteration,11,21,0.101128,2.845061
[MO833] Paramount Iteration,13,21,0.101198,2.844894
[MO833] Paramount Iteration,1,21,0.101190,2.845068
[MO833] Paramount Iteration,9,21,0.101192,2.845046
[MO833] Paramount Iteration,0,22,0.101132,2.946289
[MO833] Paramount Iteration,3,22,0.101236,2.946616
[MO833] Paramount Iteration,4,22,0.101241,2.946252
[MO833] Paramount Iteration,6,22,0.101270,2.946322
[MO833] Paramount Iteration,8,22,0.101155,2.946249
[MO833] Paramount Iteration,10,22,0.101232,2.946308
[MO833] Paramount Iteration,12,22,0.101219,2.945896
[MO833] Paramount Iteration,1,22,0.101217,2.946305
[MO833] Paramount Iteration,2,22,0.101206,2.946624
[MO833] Paramount Iteration,5,22,0.101215,2.946268
[MO833] Paramount Iteration,7,22,0.101222,2.946318
[MO833] Paramount Iteration,14,22,0.101273,2.946224
[MO833] Paramount Iteration,9,22,0.101200,2.946259
[MO833] Paramount Iteration,11,22,0.101176,2.946307
[MO833] Paramount Iteration,13,22,0.101261,2.946164
[MO833] Paramount Iteration,15,22,0.101216,2.946215
[MO833] Paramount Iteration,0,23,0.183397,3.129797
[MO833] Paramount Iteration,3,23,0.183474,3.130107
[MO833] Paramount Iteration,4,23,0.183459,3.129734
[MO833] Paramount Iteration,6,23,0.183438,3.129775
[MO833] Paramount Iteration,14,23,0.183431,3.129671
[MO833] Paramount Iteration,8,23,0.183483,3.129784
[MO833] Paramount Iteration,10,23,0.183473,3.129801
[MO833] Paramount Iteration,12,23,0.183433,3.129383
[MO833] Paramount Iteration,1,23,0.183496,3.129815
[MO833] Paramount Iteration,2,23,0.183448,3.130115
[MO833] Paramount Iteration,5,23,0.183415,3.129749
[MO833] Paramount Iteration,7,23,0.183384,3.129765
[MO833] Paramount Iteration,15,23,0.183374,3.129661
[MO833] Paramount Iteration,9,23,0.183526,3.129794
[MO833] Paramount Iteration,11,23,0.183419,3.129800
[MO833] Paramount Iteration,13,23,0.183476,3.129650
[MO833] Paramount Iteration,0,24,0.101064,3.231136
[MO833] Paramount Iteration,2,24,0.101321,3.231481
[MO833] Paramount Iteration,4,24,0.101302,3.231059
[MO833] Paramount Iteration,6,24,0.101344,3.231130
[MO833] Paramount Iteration,14,24,0.101336,3.231018
[MO833] Paramount Iteration,8,24,0.101288,3.231130
[MO833] Paramount Iteration,10,24,0.101336,3.231150
[MO833] Paramount Iteration,12,24,0.101264,3.230705
[MO833] Paramount Iteration,1,24,0.101323,3.231153
[MO833] Paramount Iteration,3,24,0.101349,3.231476
[MO833] Paramount Iteration,5,24,0.101265,3.231077
[MO833] Paramount Iteration,7,24,0.101298,3.231124
[MO833] Paramount Iteration,15,24,0.101283,3.231011
[MO833] Paramount Iteration,9,24,0.101334,3.231140
[MO833] Paramount Iteration,11,24,0.101282,3.231152
[MO833] Paramount Iteration,13,24,0.101310,3.230974
[MO833] Paramount Iteration,0,25,0.101239,3.332651
[MO833] Paramount Iteration,3,25,0.101455,3.332950
[MO833] Paramount Iteration,4,25,0.101490,3.332582
[MO833] Paramount Iteration,6,25,0.101492,3.332633
[MO833] Paramount Iteration,14,25,0.101489,3.332530
[MO833] Paramount Iteration,8,25,0.101451,3.332636
[MO833] Paramount Iteration,10,25,0.101502,3.332670
[MO833] Paramount Iteration,12,25,0.101457,3.332217
[MO833] Paramount Iteration,1,25,0.101499,3.332670
[MO833] Paramount Iteration,2,25,0.101473,3.332990
[MO833] Paramount Iteration,5,25,0.101461,3.332595
[MO833] Paramount Iteration,7,25,0.101440,3.332623
[MO833] Paramount Iteration,15,25,0.101431,3.332521
[MO833] Paramount Iteration,9,25,0.101496,3.332646
[MO833] Paramount Iteration,11,25,0.101446,3.332670
[MO833] Paramount Iteration,13,25,0.101501,3.332484
[MO833] Paramount Iteration,0,26,0.183481,3.516398
[MO833] Paramount Iteration,3,26,0.183754,3.516723
[MO833] Paramount Iteration,4,26,0.183751,3.516358
[MO833] Paramount Iteration,6,26,0.183778,3.516424
[MO833] Paramount Iteration,12,26,0.183728,3.516002
[MO833] Paramount Iteration,1,26,0.183731,3.516416
[MO833] Paramount Iteration,2,26,0.183727,3.516736
[MO833] Paramount Iteration,5,26,0.183735,3.516374
[MO833] Paramount Iteration,7,26,0.183727,3.516416
[MO833] Paramount Iteration,14,26,0.183783,3.516334
[MO833] Paramount Iteration,8,26,0.183695,3.516392
[MO833] Paramount Iteration,10,26,0.183757,3.516448
[MO833] Paramount Iteration,13,26,0.183779,3.516274
[MO833] Paramount Iteration,15,26,0.183724,3.516325
[MO833] Paramount Iteration,9,26,0.183744,3.516403
[MO833] Paramount Iteration,11,26,0.183723,3.516468
[MO833] Paramount Iteration,0,27,0.128417,3.645099
[MO833] Paramount Iteration,1,27,0.128691,3.645127
[MO833] Paramount Iteration,2,27,0.128651,3.645435
[MO833] Paramount Iteration,4,27,0.128711,3.645092
[MO833] Paramount Iteration,6,27,0.128725,3.645163
[MO833] Paramount Iteration,8,27,0.128633,3.645085
[MO833] Paramount Iteration,12,27,0.128681,3.644739
[MO833] Paramount Iteration,3,27,0.128676,3.645424
[MO833] Paramount Iteration,5,27,0.128681,3.645108
[MO833] Paramount Iteration,7,27,0.128676,3.645154
[MO833] Paramount Iteration,14,27,0.128755,3.645106
[MO833] Paramount Iteration,9,27,0.128680,3.645096
[MO833] Paramount Iteration,13,27,0.128725,3.645006
[MO833] Paramount Iteration,15,27,0.128692,3.645092
[MO833] Paramount Iteration,11,27,0.128644,3.645181
[MO833] Paramount Iteration,10,27,0.128707,3.645184
[MO833] Paramount Iteration,2,28,0.175494,3.820970
[MO833] Paramount Iteration,4,28,0.175491,3.820605
[MO833] Paramount Iteration,6,28,0.175479,3.820657
[MO833] Paramount Iteration,14,28,0.175439,3.820556
[MO833] Paramount Iteration,12,28,0.175439,3.820234
[MO833] Paramount Iteration,0,28,0.175272,3.820661
[MO833] Paramount Iteration,3,28,0.175517,3.820966
[MO833] Paramount Iteration,5,28,0.175443,3.820618
[MO833] Paramount Iteration,7,28,0.175434,3.820652
[MO833] Paramount Iteration,15,28,0.175358,3.820546
[MO833] Paramount Iteration,8,28,0.175492,3.820637
[MO833] Paramount Iteration,10,28,0.175304,3.820685
[MO833] Paramount Iteration,13,28,0.175484,3.820501
[MO833] Paramount Iteration,1,28,0.175542,3.820677
[MO833] Paramount Iteration,9,28,0.175542,3.820649
[MO833] Paramount Iteration,11,28,0.175235,3.820682
[MO833] Paramount Iteration,0,29,0.187337,4.008105
[MO833] Paramount Iteration,1,29,0.187432,4.008127
[MO833] Paramount Iteration,3,29,0.187428,4.008415
[MO833] Paramount Iteration,4,29,0.187473,4.008099
[MO833] Paramount Iteration,6,29,0.187502,4.008172
[MO833] Paramount Iteration,14,29,0.187490,4.008061
[MO833] Paramount Iteration,8,29,0.187390,4.008084
[MO833] Paramount Iteration,10,29,0.187458,4.008156
[MO833] Paramount Iteration,12,29,0.187458,4.007745
[MO833] Paramount Iteration,2,29,0.187445,4.008456
[MO833] Paramount Iteration,5,29,0.187435,4.008116
[MO833] Paramount Iteration,7,29,0.187450,4.008165
[MO833] Paramount Iteration,15,29,0.187435,4.008052
[MO833] Paramount Iteration,9,29,0.187435,4.008094
[MO833] Paramount Iteration,11,29,0.187404,4.008154
[MO833] Paramount Iteration,13,29,0.187502,4.008014
[MO833] Paramount Iteration,3,30,0.102362,4.110798
[MO833] Paramount Iteration,4,30,0.102340,4.110461
[MO833] Paramount Iteration,6,30,0.102323,4.110505
[MO833] Paramount Iteration,14,30,0.102317,4.110398
[MO833] Paramount Iteration,10,30,0.102363,4.110530
[MO833] Paramount Iteration,12,30,0.102294,4.110092
[MO833] Paramount Iteration,0,30,0.102334,4.110508
[MO833] Paramount Iteration,2,30,0.102329,4.110805
[MO833] Paramount Iteration,5,30,0.102290,4.110473
[MO833] Paramount Iteration,7,30,0.102261,4.110497
[MO833] Paramount Iteration,15,30,0.102260,4.110390
[MO833] Paramount Iteration,8,30,0.102353,4.110495
[MO833] Paramount Iteration,11,30,0.102310,4.110528
[MO833] Paramount Iteration,13,30,0.102337,4.110359
[MO833] Paramount Iteration,1,30,0.102389,4.110525
[MO833] Paramount Iteration,9,30,0.102398,4.110505
[MO833] Paramount Iteration,0,31,0.108708,4.219324
[MO833] Paramount Iteration,1,31,0.108810,4.219353
[MO833] Paramount Iteration,2,31,0.108794,4.219644
[MO833] Paramount Iteration,4,31,0.108842,4.219323
[MO833] Paramount Iteration,6,31,0.108865,4.219380
[MO833] Paramount Iteration,14,31,0.108886,4.219300
[MO833] Paramount Iteration,8,31,0.108749,4.219301
[MO833] Paramount Iteration,10,31,0.108840,4.219384
[MO833] Paramount Iteration,12,31,0.108826,4.218971
[MO833] Paramount Iteration,3,31,0.108816,4.219634
[MO833] Paramount Iteration,5,31,0.108798,4.219334
[MO833] Paramount Iteration,7,31,0.108813,4.219370
[MO833] Paramount Iteration,15,31,0.108832,4.219289
[MO833] Paramount Iteration,9,31,0.108796,4.219312
[MO833] Paramount Iteration,11,31,0.108784,4.219382
[MO833] Paramount Iteration,13,31,0.108867,4.219238
[MO833] Paramount Iteration,2,32,0.223621,4.443301
[MO833] Paramount Iteration,4,32,0.223626,4.442971
[MO833] Paramount Iteration,6,32,0.223600,4.442992
[MO833] Paramount Iteration,14,32,0.223562,4.442873
[MO833] Paramount Iteration,8,32,0.223583,4.442940
[MO833] Paramount Iteration,10,32,0.223608,4.443007
[MO833] Paramount Iteration,12,32,0.223551,4.442574
[MO833] Paramount Iteration,0,32,0.223631,4.443025
[MO833] Paramount Iteration,3,32,0.223640,4.443297
[MO833] Paramount Iteration,5,32,0.223557,4.442981
[MO833] Paramount Iteration,7,32,0.223549,4.442984
[MO833] Paramount Iteration,15,32,0.223509,4.442863
[MO833] Paramount Iteration,9,32,0.223640,4.442962
[MO833] Paramount Iteration,11,32,0.223549,4.443002
[MO833] Paramount Iteration,13,32,0.223599,4.442847
[MO833] Paramount Iteration,1,32,0.223681,4.443043
[MO833] Paramount Iteration,0,33,0.139797,4.582906
[MO833] Paramount Iteration,2,33,0.139852,4.583190
[MO833] Paramount Iteration,1,33,0.139874,4.582924
[MO833] Paramount Iteration,3,33,0.139873,4.583187
[MO833] Paramount Iteration,4,33,0.139909,4.582902
[MO833] Paramount Iteration,6,33,0.139927,4.582929
[MO833] Paramount Iteration,14,33,0.139966,4.582853
[MO833] Paramount Iteration,8,33,0.139867,4.582869
[MO833] Paramount Iteration,10,33,0.139912,4.582936
[MO833] Paramount Iteration,12,33,0.139896,4.582525
[MO833] Paramount Iteration,5,33,0.139878,4.582913
[MO833] Paramount Iteration,7,33,0.139877,4.582922
[MO833] Paramount Iteration,15,33,0.139923,4.582845
[MO833] Paramount Iteration,9,33,0.139908,4.582878
[MO833] Paramount Iteration,11,33,0.139858,4.582936
[MO833] Paramount Iteration,13,33,0.139938,4.582793
[MO833] Paramount Iteration,0,34,0.127631,4.710597
[MO833] Paramount Iteration,2,34,0.127664,4.710891
[MO833] Paramount Iteration,4,34,0.127630,4.710554
[MO833] Paramount Iteration,6,34,0.127642,4.710588
[MO833] Paramount Iteration,14,34,0.127624,4.710498
[MO833] Paramount Iteration,8,34,0.127643,4.710563
[MO833] Paramount Iteration,10,34,0.127685,4.710641
[MO833] Paramount Iteration,12,34,0.127602,4.710181
[MO833] Paramount Iteration,1,34,0.127679,4.710610
[MO833] Paramount Iteration,3,34,0.127683,4.710887
[MO833] Paramount Iteration,5,34,0.127609,4.710566
[MO833] Paramount Iteration,7,34,0.127592,4.710584
[MO833] Paramount Iteration,15,34,0.127567,4.710488
[MO833] Paramount Iteration,9,34,0.127687,4.710575
[MO833] Paramount Iteration,11,34,0.127631,4.710639
[MO833] Paramount Iteration,13,34,0.127647,4.710450
[MO833] Paramount Iteration,0,35,0.182637,4.893336
[MO833] Paramount Iteration,2,35,0.182697,4.893626
[MO833] Paramount Iteration,4,35,0.182722,4.893299
[MO833] Paramount Iteration,6,35,0.182710,4.893314
[MO833] Paramount Iteration,14,35,0.182718,4.893229
[MO833] Paramount Iteration,12,35,0.182698,4.892935
[MO833] Paramount Iteration,1,35,0.182729,4.893354
[MO833] Paramount Iteration,3,35,0.182717,4.893622
[MO833] Paramount Iteration,5,35,0.182699,4.893319
[MO833] Paramount Iteration,7,35,0.182665,4.893309
[MO833] Paramount Iteration,15,35,0.182662,4.893220
[MO833] Paramount Iteration,8,35,0.182687,4.893306
[MO833] Paramount Iteration,10,35,0.182717,4.893370
[MO833] Paramount Iteration,13,35,0.182747,4.893207
[MO833] Paramount Iteration,9,35,0.182732,4.893315
[MO833] Paramount Iteration,11,35,0.182664,4.893367
[MO833] Paramount Iteration,0,36,0.099165,4.992611
[MO833] Paramount Iteration,3,36,0.099262,4.992902
[MO833] Paramount Iteration,4,36,0.099254,4.992577
[MO833] Paramount Iteration,6,36,0.099278,4.992608
[MO833] Paramount Iteration,14,36,0.099291,4.992533
[MO833] Paramount Iteration,8,36,0.099218,4.992579
[MO833] Paramount Iteration,12,36,0.099218,4.992204
[MO833] Paramount Iteration,1,36,0.099261,4.992629
[MO833] Paramount Iteration,2,36,0.099250,4.992911
[MO833] Paramount Iteration,5,36,0.099208,4.992591
[MO833] Paramount Iteration,7,36,0.099230,4.992601
[MO833] Paramount Iteration,15,36,0.099237,4.992523
[MO833] Paramount Iteration,9,36,0.099260,4.992588
[MO833] Paramount Iteration,10,36,0.099304,4.992683
[MO833] Paramount Iteration,13,36,0.099258,4.992472
[MO833] Paramount Iteration,11,36,0.099250,4.992681
[MO833] Paramount Iteration,0,37,0.099090,5.091730
[MO833] Paramount Iteration,4,37,0.099102,5.091700
[MO833] Paramount Iteration,6,37,0.099111,5.091734
[MO833] Paramount Iteration,14,37,0.099104,5.091648
[MO833] Paramount Iteration,12,37,0.099066,5.091325
[MO833] Paramount Iteration,1,37,0.098863,5.091749
[MO833] Paramount Iteration,2,37,0.099086,5.092040
[MO833] Paramount Iteration,5,37,0.099048,5.091712
[MO833] Paramount Iteration,7,37,0.099059,5.091727
[MO833] Paramount Iteration,15,37,0.099051,5.091639
[MO833] Paramount Iteration,8,37,0.099072,5.091704
[MO833] Paramount Iteration,10,37,0.099091,5.091786
[MO833] Paramount Iteration,13,37,0.099114,5.091595
[MO833] Paramount Iteration,3,37,0.099114,5.092035
[MO833] Paramount Iteration,9,37,0.099113,5.091713
[MO833] Paramount Iteration,11,37,0.099038,5.091786
[MO833] Paramount Iteration,0,38,0.177855,5.269614
[MO833] Paramount Iteration,2,38,0.177828,5.269904
[MO833] Paramount Iteration,4,38,0.177858,5.269577
[MO833] Paramount Iteration,6,38,0.177861,5.269605
[MO833] Paramount Iteration,14,38,0.177857,5.269517
[MO833] Paramount Iteration,8,38,0.177825,5.269581
[MO833] Paramount Iteration,10,38,0.177849,5.269653
[MO833] Paramount Iteration,12,38,0.177825,5.269203
[MO833] Paramount Iteration,1,38,0.177808,5.269632
[MO833] Paramount Iteration,3,38,0.177847,5.269900
[MO833] Paramount Iteration,5,38,0.177810,5.269591
[MO833] Paramount Iteration,7,38,0.177810,5.269597
[MO833] Paramount Iteration,15,38,0.177809,5.269508
[MO833] Paramount Iteration,9,38,0.177879,5.269602
[MO833] Paramount Iteration,11,38,0.177800,5.269651
[MO833] Paramount Iteration,13,38,0.177867,5.269470
[MO833] Paramount Iteration,0,39,0.096886,5.366762
[MO833] Paramount Iteration,3,39,0.097125,5.367045
[MO833] Paramount Iteration,4,39,0.097129,5.366728
[MO833] Paramount Iteration,6,39,0.097145,5.366759
[MO833] Paramount Iteration,14,39,0.097151,5.366678
[MO833] Paramount Iteration,8,39,0.097076,5.366720
[MO833] Paramount Iteration,12,39,0.097098,5.366352
[MO833] Paramount Iteration,1,39,0.097132,5.366780
[MO833] Paramount Iteration,2,39,0.097106,5.367053
[MO833] Paramount Iteration,5,39,0.097083,5.366740
[MO833] Paramount Iteration,7,39,0.097095,5.366752
[MO833] Paramount Iteration,15,39,0.097103,5.366669
[MO833] Paramount Iteration,9,39,0.097118,5.366730
[MO833] Paramount Iteration,10,39,0.097171,5.366832
[MO833] Paramount Iteration,13,39,0.097141,5.366620
[MO833] Paramount Iteration,11,39,0.097118,5.366829
[MO833] Paramount Iteration,0,40,0.097186,5.464224
[MO833] Paramount Iteration,2,40,0.097401,5.464500
[MO833] Paramount Iteration,4,40,0.097433,5.464182
[MO833] Paramount Iteration,6,40,0.097442,5.464216
[MO833] Paramount Iteration,14,40,0.097429,5.464120
[MO833] Paramount Iteration,8,40,0.097397,5.464165
[MO833] Paramount Iteration,10,40,0.097420,5.464263
[MO833] Paramount Iteration,12,40,0.097393,5.463800
[MO833] Paramount Iteration,1,40,0.097448,5.464240
[MO833] Paramount Iteration,3,40,0.097430,5.464496
[MO833] Paramount Iteration,5,40,0.097402,5.464191
[MO833] Paramount Iteration,7,40,0.097393,5.464210
[MO833] Paramount Iteration,15,40,0.097380,5.464111
[MO833] Paramount Iteration,9,40,0.097438,5.464175
[MO833] Paramount Iteration,11,40,0.097366,5.464261
[MO833] Paramount Iteration,13,40,0.097438,5.464067
[MO833] Paramount Iteration,0,41,0.178982,5.643491
[MO833] Paramount Iteration,1,41,0.179262,5.643511
[MO833] Paramount Iteration,3,41,0.179253,5.643766
[MO833] Paramount Iteration,4,41,0.179286,5.643489
[MO833] Paramount Iteration,6,41,0.179301,5.643527
[MO833] Paramount Iteration,8,41,0.179249,5.643464
[MO833] Paramount Iteration,10,41,0.179288,5.643561
[MO833] Paramount Iteration,12,41,0.179270,5.643121
[MO833] Paramount Iteration,2,41,0.179237,5.643774
[MO833] Paramount Iteration,5,41,0.179261,5.643503
[MO833] Paramount Iteration,7,41,0.179253,5.643523
[MO833] Paramount Iteration,14,41,0.179325,5.643457
[MO833] Paramount Iteration,9,41,0.179289,5.643473
[MO833] Paramount Iteration,11,41,0.179236,5.643559
[MO833] Paramount Iteration,13,41,0.179315,5.643393
[MO833] Paramount Iteration,15,41,0.179273,5.643446
[MO833] Paramount Iteration,0,42,0.099203,5.742723
[MO833] Paramount Iteration,3,42,0.099187,5.742972
[MO833] Paramount Iteration,1,42,0.099177,5.742745
[MO833] Paramount Iteration,2,42,0.099160,5.742980
[MO833] Paramount Iteration,4,42,0.099228,5.742738
[MO833] Paramount Iteration,6,42,0.099209,5.742748
[MO833] Paramount Iteration,14,42,0.099196,5.742663
[MO833] Paramount Iteration,8,42,0.099168,5.742687
[MO833] Paramount Iteration,10,42,0.099199,5.742770
[MO833] Paramount Iteration,12,42,0.099199,5.742370
[MO833] Paramount Iteration,5,42,0.099183,5.742753
[MO833] Paramount Iteration,7,42,0.099158,5.742739
[MO833] Paramount Iteration,15,42,0.099150,5.742653
[MO833] Paramount Iteration,9,42,0.099212,5.742696
[MO833] Paramount Iteration,11,42,0.099147,5.742768
[MO833] Paramount Iteration,13,42,0.099238,5.742638
[MO833] Paramount Iteration,0,43,0.100754,5.843784
[MO833] Paramount Iteration,3,43,0.101058,5.844048
[MO833] Paramount Iteration,4,43,0.100981,5.843742
[MO833] Paramount Iteration,6,43,0.101014,5.843771
[MO833] Paramount Iteration,14,43,0.101029,5.843706
[MO833] Paramount Iteration,8,43,0.101002,5.843744
[MO833] Paramount Iteration,10,43,0.101073,5.843854
[MO833] Paramount Iteration,12,43,0.100938,5.843359
[MO833] Paramount Iteration,1,43,0.101046,5.843803
[MO833] Paramount Iteration,2,43,0.101020,5.844055
[MO833] Paramount Iteration,5,43,0.100935,5.843755
[MO833] Paramount Iteration,7,43,0.100944,5.843763
[MO833] Paramount Iteration,15,43,0.100968,5.843696
[MO833] Paramount Iteration,9,43,0.101046,5.843754
[MO833] Paramount Iteration,11,43,0.101019,5.843851
[MO833] Paramount Iteration,13,43,0.100980,5.843627
[MO833] Paramount Iteration,0,44,0.177936,6.021973
[MO833] Paramount Iteration,1,44,0.178175,6.021990
[MO833] Paramount Iteration,2,44,0.178137,6.022238
[MO833] Paramount Iteration,4,44,0.178207,6.021973
[MO833] Paramount Iteration,6,44,0.178221,6.022009
[MO833] Paramount Iteration,14,44,0.178220,6.021938
[MO833] Paramount Iteration,8,44,0.178118,6.021916
[MO833] Paramount Iteration,10,44,0.178170,6.022035
[MO833] Paramount Iteration,12,44,0.178185,6.021596
[MO833] Paramount Iteration,3,44,0.178167,6.022235
[MO833] Paramount Iteration,5,44,0.178183,6.021989
[MO833] Paramount Iteration,7,44,0.178174,6.022004
[MO833] Paramount Iteration,15,44,0.178173,6.021927
[MO833] Paramount Iteration,9,44,0.178166,6.021929
[MO833] Paramount Iteration,11,44,0.178119,6.022033
[MO833] Paramount Iteration,13,44,0.178229,6.021865
[MO833] Paramount Iteration,0,45,0.097824,6.120057
[MO833] Paramount Iteration,3,45,0.098058,6.120311
[MO833] Paramount Iteration,4,45,0.098047,6.120072
[MO833] Paramount Iteration,6,45,0.098033,6.120058
[MO833] Paramount Iteration,14,45,0.098035,6.119982
[MO833] Paramount Iteration,1,45,0.098081,6.120080
[MO833] Paramount Iteration,2,45,0.098039,6.120315
[MO833] Paramount Iteration,5,45,0.098091,6.120087
[MO833] Paramount Iteration,7,45,0.097982,6.120050
[MO833] Paramount Iteration,15,45,0.097986,6.119973
[MO833] Paramount Iteration,8,45,0.098048,6.120029
[MO833] Paramount Iteration,10,45,0.098073,6.120117
[MO833] Paramount Iteration,12,45,0.098056,6.119701
[MO833] Paramount Iteration,9,45,0.098103,6.120041
[MO833] Paramount Iteration,11,45,0.098021,6.120115
[MO833] Paramount Iteration,13,45,0.098097,6.119969
[MO833] Paramount Iteration,0,46,0.097117,6.217433
[MO833] Paramount Iteration,1,46,0.097362,6.217451
[MO833] Paramount Iteration,3,46,0.097363,6.217692
[MO833] Paramount Iteration,4,46,0.097324,6.217447
[MO833] Paramount Iteration,6,46,0.097385,6.217453
[MO833] Paramount Iteration,14,46,0.097395,6.217390
[MO833] Paramount Iteration,8,46,0.097309,6.217392
[MO833] Paramount Iteration,10,46,0.097368,6.217496
[MO833] Paramount Iteration,12,46,0.097325,6.217077
[MO833] Paramount Iteration,2,46,0.097339,6.217701
[MO833] Paramount Iteration,5,46,0.097367,6.217461
[MO833] Paramount Iteration,7,46,0.097333,6.217443
[MO833] Paramount Iteration,15,46,0.097340,6.217378
[MO833] Paramount Iteration,9,46,0.097353,6.217402
[MO833] Paramount Iteration,11,46,0.097315,6.217494
[MO833] Paramount Iteration,13,46,0.097367,6.217344
[MO833] Paramount Iteration,0,47,0.176315,6.393774
[MO833] Paramount Iteration,2,47,0.176287,6.394032
[MO833] Paramount Iteration,4,47,0.176239,6.393738
[MO833] Paramount Iteration,6,47,0.176281,6.393751
[MO833] Paramount Iteration,14,47,0.176273,6.393679
[MO833] Paramount Iteration,8,47,0.176294,6.393741
[MO833] Paramount Iteration,10,47,0.176328,6.393833
[MO833] Paramount Iteration,12,47,0.176205,6.393353
[MO833] Paramount Iteration,1,47,0.176287,6.393796
[MO833] Paramount Iteration,3,47,0.176318,6.394029
[MO833] Paramount Iteration,5,47,0.176284,6.393752
[MO833] Paramount Iteration,7,47,0.176239,6.393748
[MO833] Paramount Iteration,15,47,0.176222,6.393669
[MO833] Paramount Iteration,9,47,0.176338,6.393751
[MO833] Paramount Iteration,11,47,0.176277,6.393830
[MO833] Paramount Iteration,13,47,0.176267,6.393621
[MO833] Paramount Iteration,0,48,0.096259,6.490299
[MO833] Paramount Iteration,3,48,0.096509,6.490557
[MO833] Paramount Iteration,4,48,0.096489,6.490278
[MO833] Paramount Iteration,6,48,0.096526,6.490295
[MO833] Paramount Iteration,14,48,0.096534,6.490225
[MO833] Paramount Iteration,12,48,0.096497,6.489901
[MO833] Paramount Iteration,1,48,0.096506,6.490316
[MO833] Paramount Iteration,2,48,0.096494,6.490565
[MO833] Paramount Iteration,5,48,0.096533,6.490292
[MO833] Paramount Iteration,7,48,0.096481,6.490290
[MO833] Paramount Iteration,15,48,0.096484,6.490216
[MO833] Paramount Iteration,8,48,0.096466,6.490260
[MO833] Paramount Iteration,10,48,0.096533,6.490375
[MO833] Paramount Iteration,13,48,0.096540,6.490170
[MO833] Paramount Iteration,9,48,0.096520,6.490281
[MO833] Paramount Iteration,11,48,0.096480,6.490373
[MO833] Paramount Iteration,0,49,0.097026,6.587591
[MO833] Paramount Iteration,1,49,0.097276,6.587607
[MO833] Paramount Iteration,2,49,0.097241,6.587854
[MO833] Paramount Iteration,4,49,0.097275,6.587604
[MO833] Paramount Iteration,6,49,0.097303,6.587614
[MO833] Paramount Iteration,14,49,0.097307,6.587545
[MO833] Paramount Iteration,8,49,0.097208,6.587532
[MO833] Paramount Iteration,10,49,0.097270,6.587653
[MO833] Paramount Iteration,12,49,0.097253,6.587207
[MO833] Paramount Iteration,3,49,0.097272,6.587849
[MO833] Paramount Iteration,5,49,0.097314,6.587613
[MO833] Paramount Iteration,7,49,0.097253,6.587607
[MO833] Paramount Iteration,15,49,0.097254,6.587535
[MO833] Paramount Iteration,9,49,0.097251,6.587541
[MO833] Paramount Iteration,11,49,0.097221,6.587653
[MO833] Paramount Iteration,13,49,0.097296,6.587475
[MO833] Paramount Iteration,1,50,0.185074,6.772691
[MO833] Paramount Iteration,2,50,0.185095,6.772985
[MO833] Paramount Iteration,3,50,0.185293,6.773161
[MO833] Paramount Iteration,4,50,0.185455,6.773106
[MO833] Paramount Iteration,5,50,0.185674,6.773294
[MO833] Paramount Iteration,6,50,0.185857,6.773481
[MO833] Paramount Iteration,7,50,0.186017,6.773683
[MO833] Paramount Iteration,8,50,0.186243,6.773827
[MO833] Paramount Iteration,9,50,0.186467,6.774017
[MO833] Paramount Iteration,10,50,0.186651,6.774315
[MO833] Paramount Iteration,11,50,0.186802,6.774512
[MO833] Paramount Iteration,12,50,0.186979,6.774238
[MO833] Paramount Iteration,13,50,0.187165,6.774650
[MO833] Paramount Iteration,14,50,0.187321,6.774878
[MO833] Paramount Iteration,15,50,0.187452,6.775052
[MO833] Paramount Iteration,0,50,0.187432,6.775265
[MO833] Paramount Iteration,0,51,0.097583,6.872893
[MO833] Paramount Iteration,4,51,0.099711,6.872875
[MO833] Paramount Iteration,6,51,0.099399,6.872895
[MO833] Paramount Iteration,12,51,0.098175,6.872492
[MO833] Paramount Iteration,1,51,0.100160,6.872911
[MO833] Paramount Iteration,2,51,0.100137,6.873159
[MO833] Paramount Iteration,5,51,0.099593,6.872898
[MO833] Paramount Iteration,7,51,0.099177,6.872889
[MO833] Paramount Iteration,14,51,0.097923,6.872823
[MO833] Paramount Iteration,8,51,0.098963,6.872849
[MO833] Paramount Iteration,10,51,0.098641,6.872974
[MO833] Paramount Iteration,13,51,0.098099,6.872760
[MO833] Paramount Iteration,3,51,0.099983,6.873155
[MO833] Paramount Iteration,15,51,0.097736,6.872814
[MO833] Paramount Iteration,9,51,0.098819,6.872859
[MO833] Paramount Iteration,11,51,0.098432,6.872974
[MO833] Paramount Iteration,0,52,0.097474,6.970450
[MO833] Paramount Iteration,3,52,0.097516,6.970687
[MO833] Paramount Iteration,4,52,0.097509,6.970444
[MO833] Paramount Iteration,12,52,0.097520,6.970062
[MO833] Paramount Iteration,1,52,0.097545,6.970468
[MO833] Paramount Iteration,2,52,0.097498,6.970692
[MO833] Paramount Iteration,5,52,0.097553,6.970459
[MO833] Paramount Iteration,6,52,0.097544,6.970452
[MO833] Paramount Iteration,14,52,0.097550,6.970384
[MO833] Paramount Iteration,8,52,0.097505,6.970411
[MO833] Paramount Iteration,10,52,0.097535,6.970521
[MO833] Paramount Iteration,13,52,0.097561,6.970330
[MO833] Paramount Iteration,7,52,0.097497,6.970447
[MO833] Paramount Iteration,15,52,0.097499,6.970375
[MO833] Paramount Iteration,9,52,0.097550,6.970422
[MO833] Paramount Iteration,11,52,0.097483,6.970520
[MO833] Paramount Iteration,0,53,0.178787,7.149326
[MO833] Paramount Iteration,1,53,0.178858,7.149342
[MO833] Paramount Iteration,2,53,0.178831,7.149570
[MO833] Paramount Iteration,4,53,0.178838,7.149334
[MO833] Paramount Iteration,6,53,0.178888,7.149353
[MO833] Paramount Iteration,14,53,0.178886,7.149281
[MO833] Paramount Iteration,8,53,0.178784,7.149259
[MO833] Paramount Iteration,10,53,0.178861,7.149394
[MO833] Paramount Iteration,12,53,0.178837,7.148951
[MO833] Paramount Iteration,3,53,0.178861,7.149565
[MO833] Paramount Iteration,5,53,0.178886,7.149353
[MO833] Paramount Iteration,7,53,0.178838,7.149347
[MO833] Paramount Iteration,15,53,0.178833,7.149271
[MO833] Paramount Iteration,9,53,0.178837,7.149269
[MO833] Paramount Iteration,11,53,0.178808,7.149392
[MO833] Paramount Iteration,13,53,0.178884,7.149224
[MO833] Paramount Iteration,0,54,0.099612,7.249013
[MO833] Paramount Iteration,1,54,0.099678,7.249032
[MO833] Paramount Iteration,2,54,0.099685,7.249261
[MO833] Paramount Iteration,4,54,0.099651,7.249035
[MO833] Paramount Iteration,6,54,0.099685,7.249050
[MO833] Paramount Iteration,14,54,0.099704,7.248996
[MO833] Paramount Iteration,8,54,0.099648,7.248964
[MO833] Paramount Iteration,10,54,0.099700,7.249106
[MO833] Paramount Iteration,12,54,0.099644,7.248648
[MO833] Paramount Iteration,3,54,0.099635,7.249254
[MO833] Paramount Iteration,5,54,0.099690,7.249050
[MO833] Paramount Iteration,7,54,0.099631,7.249041
[MO833] Paramount Iteration,15,54,0.099653,7.248987
[MO833] Paramount Iteration,9,54,0.099693,7.248974
[MO833] Paramount Iteration,11,54,0.099649,7.249105
[MO833] Paramount Iteration,13,54,0.099685,7.248916
[MO833] Paramount Iteration,0,55,0.098491,7.347572
[MO833] Paramount Iteration,4,55,0.098480,7.347563
[MO833] Paramount Iteration,6,55,0.098504,7.347567
[MO833] Paramount Iteration,14,55,0.098466,7.347475
[MO833] Paramount Iteration,8,55,0.098465,7.347498
[MO833] Paramount Iteration,12,55,0.098452,7.347153
[MO833] Paramount Iteration,1,55,0.098545,7.347590
[MO833] Paramount Iteration,2,55,0.098552,7.347820
[MO833] Paramount Iteration,5,55,0.098516,7.347573
[MO833] Paramount Iteration,7,55,0.098454,7.347560
[MO833] Paramount Iteration,15,55,0.098414,7.347466
[MO833] Paramount Iteration,9,55,0.098522,7.347509
[MO833] Paramount Iteration,10,55,0.098512,7.347630
[MO833] Paramount Iteration,13,55,0.098497,7.347423
[MO833] Paramount Iteration,3,55,0.098508,7.347815
[MO833] Paramount Iteration,11,55,0.098462,7.347630
[MO833] Paramount Iteration,0,56,0.180051,7.527704
[MO833] Paramount Iteration,2,56,0.180107,7.527933
[MO833] Paramount Iteration,1,56,0.180127,7.527724
[MO833] Paramount Iteration,3,56,0.180062,7.527926
[MO833] Paramount Iteration,4,56,0.180121,7.527731
[MO833] Paramount Iteration,6,56,0.180155,7.527733
[MO833] Paramount Iteration,14,56,0.180186,7.527675
[MO833] Paramount Iteration,8,56,0.180097,7.527652
[MO833] Paramount Iteration,10,56,0.180138,7.527785
[MO833] Paramount Iteration,12,56,0.180144,7.527350
[MO833] Paramount Iteration,5,56,0.180167,7.527747
[MO833] Paramount Iteration,7,56,0.180101,7.527723
[MO833] Paramount Iteration,15,56,0.180134,7.527667
[MO833] Paramount Iteration,9,56,0.180143,7.527662
[MO833] Paramount Iteration,11,56,0.180087,7.527782
[MO833] Paramount Iteration,13,56,0.180186,7.527617
[MO833] Paramount Iteration,0,57,0.098754,7.626529
[MO833] Paramount Iteration,1,57,0.098810,7.626546
[MO833] Paramount Iteration,2,57,0.098811,7.626750
[MO833] Paramount Iteration,4,57,0.098766,7.626546
[MO833] Paramount Iteration,6,57,0.098801,7.626548
[MO833] Paramount Iteration,14,57,0.098790,7.626480
[MO833] Paramount Iteration,8,57,0.098750,7.626458
[MO833] Paramount Iteration,10,57,0.098796,7.626591
[MO833] Paramount Iteration,12,57,0.098741,7.626142
[MO833] Paramount Iteration,3,57,0.098768,7.626746
[MO833] Paramount Iteration,5,57,0.098802,7.626556
[MO833] Paramount Iteration,7,57,0.098752,7.626543
[MO833] Paramount Iteration,15,57,0.098731,7.626468
[MO833] Paramount Iteration,9,57,0.098794,7.626467
[MO833] Paramount Iteration,11,57,0.098743,7.626589
[MO833] Paramount Iteration,13,57,0.098783,7.626410
[MO833] Paramount Iteration,0,58,0.099305,7.725909
[MO833] Paramount Iteration,2,58,0.099381,7.726140
[MO833] Paramount Iteration,4,58,0.099304,7.725898
[MO833] Paramount Iteration,6,58,0.099329,7.725892
[MO833] Paramount Iteration,14,58,0.099347,7.725836
[MO833] Paramount Iteration,12,58,0.099303,7.725498
[MO833] Paramount Iteration,1,58,0.099366,7.725922
[MO833] Paramount Iteration,3,58,0.099332,7.726136
[MO833] Paramount Iteration,5,58,0.099344,7.725908
[MO833] Paramount Iteration,7,58,0.099280,7.725884
[MO833] Paramount Iteration,15,58,0.099292,7.725826
[MO833] Paramount Iteration,8,58,0.099350,7.725862
[MO833] Paramount Iteration,10,58,0.099393,7.725995
[MO833] Paramount Iteration,13,58,0.099346,7.725766
[MO833] Paramount Iteration,9,58,0.099394,7.725872
[MO833] Paramount Iteration,11,58,0.099342,7.725993
[MO833] Paramount Iteration,0,59,0.178831,7.904844
[MO833] Paramount Iteration,2,59,0.178915,7.905061
[MO833] Paramount Iteration,1,59,0.178924,7.904862
[MO833] Paramount Iteration,3,59,0.178866,7.905053
[MO833] Paramount Iteration,4,59,0.178934,7.904880
[MO833] Paramount Iteration,6,59,0.178961,7.904865
[MO833] Paramount Iteration,14,59,0.178976,7.904823
[MO833] Paramount Iteration,8,59,0.178870,7.904790
[MO833] Paramount Iteration,10,59,0.178920,7.904925
[MO833] Paramount Iteration,12,59,0.178928,7.904479
[MO833] Paramount Iteration,5,59,0.178974,7.904889
[MO833] Paramount Iteration,7,59,0.178911,7.904858
[MO833] Paramount Iteration,15,59,0.178925,7.904813
[MO833] Paramount Iteration,9,59,0.178916,7.904800
[MO833] Paramount Iteration,11,59,0.178867,7.904923
[MO833] Paramount Iteration,13,59,0.178970,7.904746
[MO833] Paramount Iteration,1,60,0.146755,8.051630
[MO833] Paramount Iteration,2,60,0.146723,8.051790
[MO833] Paramount Iteration,5,60,0.146735,8.051632
[MO833] Paramount Iteration,6,60,0.146743,8.051621
[MO833] Paramount Iteration,9,60,0.146736,8.051549
[MO833] Paramount Iteration,10,60,0.146763,8.051698
[MO833] Paramount Iteration,13,60,0.146724,8.051479
[MO833] Paramount Iteration,0,60,0.146905,8.051817
[MO833] Paramount Iteration,3,60,0.146815,8.051920
[MO833] Paramount Iteration,4,60,0.146834,8.051760
[MO833] Paramount Iteration,14,60,0.146784,8.051618
[MO833] Paramount Iteration,8,60,0.146844,8.051692
[MO833] Paramount Iteration,11,60,0.146842,8.051826
[MO833] Paramount Iteration,12,60,0.146834,8.051362
[MO833] Paramount Iteration,7,60,0.146872,8.051789
[MO833] Paramount Iteration,15,60,0.146738,8.051615
[MO833] Paramount Iteration,2,61,0.099304,8.151141
[MO833] Paramount Iteration,4,61,0.099150,8.150922
[MO833] Paramount Iteration,6,61,0.099264,8.150907
[MO833] Paramount Iteration,12,61,0.099143,8.150531
[MO833] Paramount Iteration,0,61,0.099072,8.150942
[MO833] Paramount Iteration,3,61,0.099182,8.151138
[MO833] Paramount Iteration,5,61,0.099240,8.150937
[MO833] Paramount Iteration,7,61,0.099068,8.150902
[MO833] Paramount Iteration,14,61,0.099215,8.150853
[MO833] Paramount Iteration,8,61,0.099156,8.150874
[MO833] Paramount Iteration,10,61,0.099248,8.151005
[MO833] Paramount Iteration,13,61,0.099297,8.150798
[MO833] Paramount Iteration,1,61,0.099019,8.150957
[MO833] Paramount Iteration,15,61,0.099157,8.150844
[MO833] Paramount Iteration,9,61,0.099312,8.150884
[MO833] Paramount Iteration,11,61,0.099143,8.151002
[MO833] Paramount Iteration,0,62,0.180130,8.331174
[MO833] Paramount Iteration,2,62,0.180242,8.331389
[MO833] Paramount Iteration,4,62,0.180228,8.331205
[MO833] Paramount Iteration,8,62,0.180198,8.331124
[MO833] Paramount Iteration,12,62,0.180238,8.330820
[MO833] Paramount Iteration,1,62,0.180224,8.331192
[MO833] Paramount Iteration,3,62,0.180192,8.331376
[MO833] Paramount Iteration,5,62,0.180278,8.331225
[MO833] Paramount Iteration,6,62,0.180286,8.331205
[MO833] Paramount Iteration,14,62,0.180290,8.331161
[MO833] Paramount Iteration,9,62,0.180238,8.331132
[MO833] Paramount Iteration,10,62,0.180255,8.331270
[MO833] Paramount Iteration,13,62,0.180279,8.331087
[MO833] Paramount Iteration,7,62,0.180236,8.331196
[MO833] Paramount Iteration,15,62,0.180238,8.331151
[MO833] Paramount Iteration,11,62,0.180183,8.331267
[MO833] Paramount Iteration,0,63,0.099616,8.430819
[MO833] Paramount Iteration,2,63,0.099618,8.431012
[MO833] Paramount Iteration,4,63,0.099593,8.430850
[MO833] Paramount Iteration,6,63,0.099620,8.430842
[MO833] Paramount Iteration,14,63,0.099581,8.430755
[MO833] Paramount Iteration,8,63,0.099561,8.430737
[MO833] Paramount Iteration,10,63,0.099594,8.430873
[MO833] Paramount Iteration,12,63,0.099551,8.430423
[MO833] Paramount Iteration,1,63,0.099384,8.430837
[MO833] Paramount Iteration,3,63,0.099577,8.431007
[MO833] Paramount Iteration,5,63,0.099629,8.430860
[MO833] Paramount Iteration,7,63,0.099569,8.430834
[MO833] Paramount Iteration,15,63,0.099525,8.430746
[MO833] Paramount Iteration,9,63,0.099606,8.430749
[MO833] Paramount Iteration,11,63,0.099546,8.430874
[MO833] Paramount Iteration,13,63,0.099595,8.430693
[MO833] Paramount Iteration,4,64,0.100388,8.531286
[MO833] Paramount Iteration,6,64,0.100430,8.531280
[MO833] Paramount Iteration,14,64,0.100446,8.531214
[MO833] Paramount Iteration,8,64,0.100410,8.531211
[MO833] Paramount Iteration,12,64,0.100405,8.530881
[MO833] Paramount Iteration,5,64,0.100429,8.531296
[MO833] Paramount Iteration,7,64,0.100383,8.531275
[MO833] Paramount Iteration,15,64,0.100395,8.531206
[MO833] Paramount Iteration,9,64,0.100468,8.531225
[MO833] Paramount Iteration,10,64,0.100539,8.531425
[MO833] Paramount Iteration,13,64,0.100448,8.531149
[MO833] Paramount Iteration,2,64,0.100560,8.531578
[MO833] Paramount Iteration,11,64,0.100487,8.531421
[MO833] Paramount Iteration,3,64,0.100518,8.531574
[MO833] Paramount Iteration,0,64,0.100392,8.531314
[MO833] Paramount Iteration,1,64,0.100484,8.531332
[MO833] Paramount Iteration,0,65,0.182761,8.714109
[MO833] Paramount Iteration,2,65,0.182730,8.714314
[MO833] Paramount Iteration,4,65,0.182799,8.714135
[MO833] Paramount Iteration,12,65,0.182810,8.713744
[MO833] Paramount Iteration,1,65,0.182503,8.714121
[MO833] Paramount Iteration,3,65,0.182675,8.714305
[MO833] Paramount Iteration,5,65,0.182845,8.714149
[MO833] Paramount Iteration,6,65,0.182831,8.714128
[MO833] Paramount Iteration,14,65,0.182850,8.714082
[MO833] Paramount Iteration,8,65,0.182796,8.714067
[MO833] Paramount Iteration,10,65,0.182756,8.714197
[MO833] Paramount Iteration,13,65,0.182856,8.714015
[MO833] Paramount Iteration,7,65,0.182781,8.714122
[MO833] Paramount Iteration,15,65,0.182795,8.714070
[MO833] Paramount Iteration,9,65,0.182838,8.714076
[MO833] Paramount Iteration,11,65,0.182701,8.714195
[MO833] Paramount Iteration,0,66,0.100728,8.814861
[MO833] Paramount Iteration,3,66,0.100699,8.815053
[MO833] Paramount Iteration,4,66,0.100716,8.814902
[MO833] Paramount Iteration,8,66,0.100688,8.814804
[MO833] Paramount Iteration,10,66,0.100763,8.814972
[MO833] Paramount Iteration,12,66,0.100716,8.814510
[MO833] Paramount Iteration,1,66,0.100527,8.814902
[MO833] Paramount Iteration,2,66,0.100749,8.815069
[MO833] Paramount Iteration,5,66,0.100759,8.814920
[MO833] Paramount Iteration,6,66,0.100752,8.814892
[MO833] Paramount Iteration,14,66,0.100755,8.814849
[MO833] Paramount Iteration,9,66,0.100728,8.814813
[MO833] Paramount Iteration,11,66,0.100719,8.814970
[MO833] Paramount Iteration,13,66,0.100756,8.814778
[MO833] Paramount Iteration,7,66,0.100705,8.814886
[MO833] Paramount Iteration,15,66,0.100701,8.814839
[MO833] Paramount Iteration,0,67,0.100436,8.915411
[MO833] Paramount Iteration,2,67,0.100527,8.915602
[MO833] Paramount Iteration,4,67,0.100473,8.915425
[MO833] Paramount Iteration,6,67,0.100473,8.915380
[MO833] Paramount Iteration,14,67,0.100465,8.915332
[MO833] Paramount Iteration,8,67,0.100498,8.915354
[MO833] Paramount Iteration,10,67,0.100514,8.915497
[MO833] Paramount Iteration,12,67,0.100476,8.915034
[MO833] Paramount Iteration,1,67,0.100516,8.915429
[MO833] Paramount Iteration,3,67,0.100488,8.915597
[MO833] Paramount Iteration,5,67,0.100517,8.915444
[MO833] Paramount Iteration,7,67,0.100422,8.915371
[MO833] Paramount Iteration,15,67,0.100424,8.915323
[MO833] Paramount Iteration,9,67,0.100540,8.915363
[MO833] Paramount Iteration,11,67,0.100466,8.915495
[MO833] Paramount Iteration,13,67,0.100515,8.915302
[MO833] Paramount Iteration,4,68,0.181762,9.097238
[MO833] Paramount Iteration,6,68,0.181792,9.097218
[MO833] Paramount Iteration,12,68,0.181758,9.096841
[MO833] Paramount Iteration,0,68,0.181741,9.097245
[MO833] Paramount Iteration,2,68,0.181830,9.097438
[MO833] Paramount Iteration,5,68,0.181803,9.097254
[MO833] Paramount Iteration,7,68,0.181816,9.097211
[MO833] Paramount Iteration,14,68,0.181818,9.097163
[MO833] Paramount Iteration,8,68,0.181775,9.097186
[MO833] Paramount Iteration,10,68,0.181827,9.097333
[MO833] Paramount Iteration,13,68,0.181801,9.097111
[MO833] Paramount Iteration,1,68,0.181822,9.097264
[MO833] Paramount Iteration,3,68,0.181787,9.097433
[MO833] Paramount Iteration,15,68,0.181766,9.097153
[MO833] Paramount Iteration,9,68,0.181820,9.097196
[MO833] Paramount Iteration,11,68,0.181778,9.097333
[MO833] Paramount Iteration,0,69,0.099522,9.196798
[MO833] Paramount Iteration,4,69,0.099508,9.196805
[MO833] Paramount Iteration,6,69,0.099548,9.196778
[MO833] Paramount Iteration,14,69,0.099545,9.196719
[MO833] Paramount Iteration,12,69,0.099514,9.196406
[MO833] Paramount Iteration,1,69,0.099464,9.196818
[MO833] Paramount Iteration,2,69,0.099542,9.196986
[MO833] Paramount Iteration,5,69,0.099555,9.196818
[MO833] Paramount Iteration,7,69,0.099499,9.196772
[MO833] Paramount Iteration,15,69,0.099502,9.196709
[MO833] Paramount Iteration,8,69,0.099497,9.196740
[MO833] Paramount Iteration,10,69,0.099540,9.196885
[MO833] Paramount Iteration,13,69,0.099557,9.196675
[MO833] Paramount Iteration,3,69,0.099497,9.196981
[MO833] Paramount Iteration,9,69,0.099542,9.196750
[MO833] Paramount Iteration,11,69,0.099487,9.196883
[MO833] Paramount Iteration,0,70,0.136586,9.333625
[MO833] Paramount Iteration,3,70,0.136753,9.333784
[MO833] Paramount Iteration,4,70,0.136810,9.333665
[MO833] Paramount Iteration,7,70,0.136789,9.333622
[MO833] Paramount Iteration,15,70,0.136764,9.333537
[MO833] Paramount Iteration,8,70,0.136727,9.333523
[MO833] Paramount Iteration,11,70,0.136733,9.333678
[MO833] Paramount Iteration,12,70,0.136772,9.333231
[MO833] Paramount Iteration,2,70,0.136921,9.333913
[MO833] Paramount Iteration,14,70,0.136937,9.333667
[MO833] Paramount Iteration,9,70,0.136914,9.333676
[MO833] Paramount Iteration,10,70,0.136905,9.333801
[MO833] Paramount Iteration,13,70,0.136957,9.333641
[MO833] Paramount Iteration,1,70,0.136880,9.333790
[MO833] Paramount Iteration,5,70,0.136991,9.333816
[MO833] Paramount Iteration,6,70,0.136960,9.333749
[MO833] Paramount Iteration,0,71,0.181341,9.515267
[MO833] Paramount Iteration,4,71,0.181563,9.515275
[MO833] Paramount Iteration,6,71,0.181457,9.515238
[MO833] Paramount Iteration,14,71,0.181512,9.515192
[MO833] Paramount Iteration,12,71,0.181592,9.514872
[MO833] Paramount Iteration,1,71,0.181438,9.515287
[MO833] Paramount Iteration,2,71,0.181510,9.515451
[MO833] Paramount Iteration,5,71,0.181446,9.515290
[MO833] Paramount Iteration,7,71,0.181549,9.515233
[MO833] Paramount Iteration,15,71,0.181582,9.515182
[MO833] Paramount Iteration,8,71,0.181632,9.515207
[MO833] Paramount Iteration,10,71,0.181537,9.515369
[MO833] Paramount Iteration,13,71,0.181488,9.515142
[MO833] Paramount Iteration,3,71,0.181625,9.515447
[MO833] Paramount Iteration,9,71,0.181525,9.515215
[MO833] Paramount Iteration,11,71,0.181620,9.515365
[MO833] Paramount Iteration,0,72,0.100311,9.615606
[MO833] Paramount Iteration,2,72,0.100324,9.615781
[MO833] Paramount Iteration,4,72,0.100285,9.615614
[MO833] Paramount Iteration,6,72,0.100305,9.615589
[MO833] Paramount Iteration,8,72,0.100270,9.615532
[MO833] Paramount Iteration,12,72,0.100285,9.615210
[MO833] Paramount Iteration,1,72,0.100273,9.615623
[MO833] Paramount Iteration,3,72,0.100280,9.615776
[MO833] Paramount Iteration,5,72,0.100330,9.615627
[MO833] Paramount Iteration,7,72,0.100327,9.615580
[MO833] Paramount Iteration,14,72,0.100349,9.615553
[MO833] Paramount Iteration,9,72,0.100315,9.615543
[MO833] Paramount Iteration,10,72,0.100327,9.615706
[MO833] Paramount Iteration,13,72,0.100331,9.615480
[MO833] Paramount Iteration,15,72,0.100297,9.615544
[MO833] Paramount Iteration,11,72,0.100273,9.615705
[MO833] Paramount Iteration,0,73,0.098785,9.714658
[MO833] Paramount Iteration,1,73,0.099046,9.714678
[MO833] Paramount Iteration,2,73,0.099056,9.714844
[MO833] Paramount Iteration,4,73,0.099041,9.714704
[MO833] Paramount Iteration,6,73,0.099046,9.714684
[MO833] Paramount Iteration,8,73,0.099006,9.714593
[MO833] Paramount Iteration,10,73,0.099054,9.714773
[MO833] Paramount Iteration,12,73,0.099040,9.714305
[MO833] Paramount Iteration,3,73,0.099001,9.714830
[MO833] Paramount Iteration,5,73,0.099085,9.714719
[MO833] Paramount Iteration,7,73,0.099073,9.714677
[MO833] Paramount Iteration,14,73,0.099089,9.714658
[MO833] Paramount Iteration,9,73,0.099051,9.714604
[MO833] Paramount Iteration,11,73,0.099004,9.714773
[MO833] Paramount Iteration,13,73,0.099087,9.714575
[MO833] Paramount Iteration,15,73,0.099036,9.714649
[MO833] Paramount Iteration,4,74,0.178014,9.892769
[MO833] Paramount Iteration,14,74,0.177999,9.892669
[MO833] Paramount Iteration,8,74,0.178004,9.892651
[MO833] Paramount Iteration,12,74,0.177967,9.892326
[MO833] Paramount Iteration,0,74,0.177852,9.892777
[MO833] Paramount Iteration,2,74,0.178093,9.892943
[MO833] Paramount Iteration,5,74,0.178053,9.892779
[MO833] Paramount Iteration,6,74,0.178007,9.892741
[MO833] Paramount Iteration,15,74,0.177948,9.892659
[MO833] Paramount Iteration,9,74,0.178050,9.892663
[MO833] Paramount Iteration,10,74,0.178050,9.892837
[MO833] Paramount Iteration,13,74,0.178015,9.892598
[MO833] Paramount Iteration,3,74,0.178045,9.892935
[MO833] Paramount Iteration,7,74,0.178031,9.892733
[MO833] Paramount Iteration,11,74,0.177993,9.892831
[MO833] Paramount Iteration,1,74,0.178316,9.893006
[MO833] Paramount Iteration,4,75,0.098784,9.991604
[MO833] Paramount Iteration,0,75,0.098727,9.991586
[MO833] Paramount Iteration,2,75,0.098815,9.991764
[MO833] Paramount Iteration,5,75,0.098837,9.991624
[MO833] Paramount Iteration,6,75,0.098791,9.991586
[MO833] Paramount Iteration,14,75,0.098851,9.991532
[MO833] Paramount Iteration,8,75,0.098812,9.991522
[MO833] Paramount Iteration,10,75,0.098815,9.991705
[MO833] Paramount Iteration,12,75,0.098829,9.991208
[MO833] Paramount Iteration,1,75,0.098561,9.991608
[MO833] Paramount Iteration,3,75,0.098767,9.991756
[MO833] Paramount Iteration,7,75,0.098797,9.991560
[MO833] Paramount Iteration,15,75,0.098798,9.991521
[MO833] Paramount Iteration,9,75,0.098851,9.991528
[MO833] Paramount Iteration,11,75,0.098842,9.991704
[MO833] Paramount Iteration,13,75,0.098876,9.991480
[MO833] Paramount Iteration,0,76,0.098091,10.089776
[MO833] Paramount Iteration,2,76,0.098176,10.089951
[MO833] Paramount Iteration,4,76,0.098129,10.089786
[MO833] Paramount Iteration,7,76,0.098134,10.089739
[MO833] Paramount Iteration,14,76,0.098163,10.089713
[MO833] Paramount Iteration,12,76,0.098117,10.089377
[MO833] Paramount Iteration,1,76,0.098171,10.089793
[MO833] Paramount Iteration,3,76,0.098130,10.089941
[MO833] Paramount Iteration,5,76,0.098169,10.089800
[MO833] Paramount Iteration,6,76,0.098110,10.089749
[MO833] Paramount Iteration,15,76,0.098110,10.089704
[MO833] Paramount Iteration,8,76,0.098137,10.089712
[MO833] Paramount Iteration,10,76,0.098177,10.089897
[MO833] Paramount Iteration,13,76,0.098159,10.089646
[MO833] Paramount Iteration,9,76,0.098179,10.089721
[MO833] Paramount Iteration,11,76,0.098124,10.089894
[MO833] Paramount Iteration,0,77,0.178693,10.268570
[MO833] Paramount Iteration,3,77,0.178728,10.268723
[MO833] Paramount Iteration,4,77,0.178747,10.268586
[MO833] Paramount Iteration,6,77,0.178736,10.268546
[MO833] Paramount Iteration,14,77,0.178769,10.268494
[MO833] Paramount Iteration,8,77,0.178737,10.268504
[MO833] Paramount Iteration,12,77,0.178747,10.268178
[MO833] Paramount Iteration,1,77,0.178782,10.268588
[MO833] Paramount Iteration,2,77,0.178774,10.268732
[MO833] Paramount Iteration,5,77,0.178787,10.268595
[MO833] Paramount Iteration,7,77,0.178775,10.268542
[MO833] Paramount Iteration,15,77,0.178717,10.268484
[MO833] Paramount Iteration,9,77,0.178781,10.268514
[MO833] Paramount Iteration,10,77,0.178782,10.268689
[MO833] Paramount Iteration,13,77,0.178788,10.268445
[MO833] Paramount Iteration,11,77,0.178728,10.268687
[MO833] Paramount Iteration,0,78,0.098638,10.367315
[MO833] Paramount Iteration,2,78,0.098722,10.367465
[MO833] Paramount Iteration,4,78,0.098719,10.367354
[MO833] Paramount Iteration,1,78,0.098726,10.367328
[MO833] Paramount Iteration,3,78,0.098680,10.367460
[MO833] Paramount Iteration,5,78,0.098770,10.367374
[MO833] Paramount Iteration,6,78,0.098724,10.367317
[MO833] Paramount Iteration,14,78,0.098783,10.367291
[MO833] Paramount Iteration,8,78,0.098669,10.367226
[MO833] Paramount Iteration,10,78,0.098709,10.367411
[MO833] Paramount Iteration,12,78,0.098739,10.366967
[MO833] Paramount Iteration,7,78,0.098746,10.367307
[MO833] Paramount Iteration,15,78,0.098732,10.367283
[MO833] Paramount Iteration,9,78,0.098712,10.367237
[MO833] Paramount Iteration,11,78,0.098659,10.367410
[MO833] Paramount Iteration,13,78,0.098778,10.367234
[MO833] Paramount Iteration,3,79,0.098640,10.466154
[MO833] Paramount Iteration,4,79,0.098614,10.466034
[MO833] Paramount Iteration,6,79,0.098613,10.465978
[MO833] Paramount Iteration,12,79,0.098591,10.465609
[MO833] Paramount Iteration,0,79,0.098688,10.466025
[MO833] Paramount Iteration,2,79,0.098691,10.466163
[MO833] Paramount Iteration,5,79,0.098679,10.466060
[MO833] Paramount Iteration,7,79,0.098637,10.465970
[MO833] Paramount Iteration,14,79,0.098603,10.465951
[MO833] Paramount Iteration,8,79,0.098634,10.465934
[MO833] Paramount Iteration,10,79,0.098690,10.466114
[MO833] Paramount Iteration,13,79,0.098632,10.465876
[MO833] Paramount Iteration,1,79,0.098455,10.466040
[MO833] Paramount Iteration,15,79,0.098632,10.465941
[MO833] Paramount Iteration,9,79,0.098695,10.465943
[MO833] Paramount Iteration,11,79,0.098638,10.466112
[MO833] Paramount Iteration,0,80,0.219973,10.686083
[MO833] Paramount Iteration,3,80,0.219990,10.686196
[MO833] Paramount Iteration,4,80,0.220017,10.686117
[MO833] Paramount Iteration,7,80,0.220048,10.686040
[MO833] Paramount Iteration,15,80,0.219977,10.685984
[MO833] Paramount Iteration,8,80,0.219993,10.685981
[MO833] Paramount Iteration,11,80,0.219956,10.686138
[MO833] Paramount Iteration,2,80,0.220155,10.686324
[MO833] Paramount Iteration,14,80,0.220143,10.686108
[MO833] Paramount Iteration,10,80,0.220133,10.686261
[MO833] Paramount Iteration,12,80,0.220045,10.685705
[MO833] Paramount Iteration,5,80,0.220200,10.686269
[MO833] Paramount Iteration,6,80,0.220193,10.686217
[MO833] Paramount Iteration,9,80,0.220182,10.686138
[MO833] Paramount Iteration,13,80,0.220229,10.686115
[MO833] Paramount Iteration,1,80,0.220422,10.686478
[MO833] Paramount Iteration,0,81,0.100103,10.786259
[MO833] Paramount Iteration,4,81,0.100133,10.786296
[MO833] Paramount Iteration,14,81,0.100063,10.786203
[MO833] Paramount Iteration,8,81,0.100140,10.786187
[MO833] Paramount Iteration,12,81,0.100114,10.785865
[MO833] Paramount Iteration,1,81,0.099747,10.786274
[MO833] Paramount Iteration,2,81,0.100120,10.786457
[MO833] Paramount Iteration,5,81,0.100023,10.786306
[MO833] Paramount Iteration,6,81,0.100029,10.786269
[MO833] Paramount Iteration,15,81,0.100163,10.786196
[MO833] Paramount Iteration,9,81,0.100020,10.786197
[MO833] Paramount Iteration,10,81,0.100086,10.786378
[MO833] Paramount Iteration,13,81,0.100009,10.786137
[MO833] Paramount Iteration,3,81,0.100205,10.786452
[MO833] Paramount Iteration,7,81,0.100201,10.786261
[MO833] Paramount Iteration,11,81,0.100173,10.786374
[MO833] Paramount Iteration,0,82,0.099395,10.885751
[MO833] Paramount Iteration,4,82,0.099437,10.885785
[MO833] Paramount Iteration,1,82,0.099480,10.885772
[MO833] Paramount Iteration,2,82,0.099457,10.885920
[MO833] Paramount Iteration,5,82,0.099484,10.885800
[MO833] Paramount Iteration,6,82,0.099455,10.885736
[MO833] Paramount Iteration,14,82,0.099490,10.885710
[MO833] Paramount Iteration,8,82,0.099440,10.885683
[MO833] Paramount Iteration,10,82,0.099447,10.885875
[MO833] Paramount Iteration,12,82,0.099453,10.885375
[MO833] Paramount Iteration,3,82,0.099415,10.885916
[MO833] Paramount Iteration,7,82,0.099404,10.885725
[MO833] Paramount Iteration,15,82,0.099436,10.885700
[MO833] Paramount Iteration,9,82,0.099483,10.885693
[MO833] Paramount Iteration,11,82,0.099472,10.885873
[MO833] Paramount Iteration,13,82,0.099497,10.885644
[MO833] Paramount Iteration,0,83,0.181248,11.067094
[MO833] Paramount Iteration,4,83,0.181271,11.067109
[MO833] Paramount Iteration,12,83,0.181263,11.066693
[MO833] Paramount Iteration,1,83,0.181325,11.067111
[MO833] Paramount Iteration,2,83,0.181325,11.067253
[MO833] Paramount Iteration,5,83,0.181314,11.067121
[MO833] Paramount Iteration,6,83,0.181331,11.067083
[MO833] Paramount Iteration,14,83,0.181308,11.067032
[MO833] Paramount Iteration,8,83,0.181267,11.067005
[MO833] Paramount Iteration,10,83,0.181306,11.067194
[MO833] Paramount Iteration,13,83,0.181306,11.066961
[MO833] Paramount Iteration,3,83,0.181279,11.067249
[MO833] Paramount Iteration,7,83,0.181281,11.067075
[MO833] Paramount Iteration,15,83,0.181255,11.067024
[MO833] Paramount Iteration,9,83,0.181313,11.067018
[MO833] Paramount Iteration,11,83,0.181257,11.067195
[MO833] Paramount Iteration,0,84,0.099171,11.166352
[MO833] Paramount Iteration,2,84,0.099240,11.166501
[MO833] Paramount Iteration,4,84,0.099218,11.166381
[MO833] Paramount Iteration,6,84,0.099188,11.166316
[MO833] Paramount Iteration,8,84,0.099205,11.166269
[MO833] Paramount Iteration,12,84,0.099219,11.165963
[MO833] Paramount Iteration,1,84,0.099248,11.166368
[MO833] Paramount Iteration,3,84,0.099196,11.166498
[MO833] Paramount Iteration,5,84,0.099261,11.166390
[MO833] Paramount Iteration,7,84,0.099210,11.166307
[MO833] Paramount Iteration,14,84,0.099241,11.166289
[MO833] Paramount Iteration,9,84,0.099252,11.166279
[MO833] Paramount Iteration,10,84,0.099266,11.166473
[MO833] Paramount Iteration,13,84,0.099261,11.166231
[MO833] Paramount Iteration,15,84,0.099187,11.166281
[MO833] Paramount Iteration,11,84,0.099212,11.166470
[MO833] Paramount Iteration,0,85,0.098963,11.265412
[MO833] Paramount Iteration,2,85,0.099034,11.265542
[MO833] Paramount Iteration,1,85,0.099055,11.265435
[MO833] Paramount Iteration,3,85,0.098989,11.265537
[MO833] Paramount Iteration,4,85,0.099045,11.265478
[MO833] Paramount Iteration,6,85,0.099039,11.265402
[MO833] Paramount Iteration,14,85,0.099070,11.265376
[MO833] Paramount Iteration,8,85,0.099015,11.265337
[MO833] Paramount Iteration,10,85,0.099031,11.265516
[MO833] Paramount Iteration,12,85,0.099056,11.265070
[MO833] Paramount Iteration,5,85,0.099090,11.265492
[MO833] Paramount Iteration,7,85,0.099066,11.265397
[MO833] Paramount Iteration,15,85,0.099027,11.265366
[MO833] Paramount Iteration,9,85,0.099057,11.265348
[MO833] Paramount Iteration,11,85,0.098981,11.265516
[MO833] Paramount Iteration,13,85,0.099100,11.265340
[MO833] Paramount Iteration,0,86,0.180793,11.446272
[MO833] Paramount Iteration,2,86,0.180847,11.446396
[MO833] Paramount Iteration,4,86,0.180768,11.446297
[MO833] Paramount Iteration,12,86,0.180762,11.445885
[MO833] Paramount Iteration,1,86,0.180846,11.446290
[MO833] Paramount Iteration,3,86,0.180805,11.446390
[MO833] Paramount Iteration,5,86,0.180811,11.446311
[MO833] Paramount Iteration,6,86,0.180800,11.446248
[MO833] Paramount Iteration,14,86,0.180820,11.446209
[MO833] Paramount Iteration,8,86,0.180811,11.446200
[MO833] Paramount Iteration,10,86,0.180853,11.446382
[MO833] Paramount Iteration,13,86,0.180803,11.446152
[MO833] Paramount Iteration,7,86,0.180826,11.446243
[MO833] Paramount Iteration,15,86,0.180766,11.446199
[MO833] Paramount Iteration,9,86,0.180854,11.446211
[MO833] Paramount Iteration,11,86,0.180802,11.446381
[MO833] Paramount Iteration,0,87,0.099345,11.545644
[MO833] Paramount Iteration,4,87,0.099341,11.545693
[MO833] Paramount Iteration,1,87,0.099296,11.545662
[MO833] Paramount Iteration,3,87,0.099337,11.545777
[MO833] Paramount Iteration,5,87,0.099388,11.545707
[MO833] Paramount Iteration,6,87,0.099350,11.545644
[MO833] Paramount Iteration,14,87,0.099405,11.545626
[MO833] Paramount Iteration,8,87,0.099320,11.545569
[MO833] Paramount Iteration,10,87,0.099384,11.545778
[MO833] Paramount Iteration,12,87,0.099347,11.545285
[MO833] Paramount Iteration,2,87,0.099387,11.545790
[MO833] Paramount Iteration,7,87,0.099378,11.545640
[MO833] Paramount Iteration,15,87,0.099354,11.545617
[MO833] Paramount Iteration,9,87,0.099360,11.545579
[MO833] Paramount Iteration,11,87,0.099329,11.545774
[MO833] Paramount Iteration,13,87,0.099392,11.545555
[MO833] Paramount Iteration,0,88,0.099613,11.645283
[MO833] Paramount Iteration,2,88,0.099599,11.645396
[MO833] Paramount Iteration,4,88,0.099553,11.645301
[MO833] Paramount Iteration,6,88,0.099567,11.645257
[MO833] Paramount Iteration,14,88,0.099567,11.645207
[MO833] Paramount Iteration,8,88,0.099556,11.645177
[MO833] Paramount Iteration,10,88,0.099587,11.645380
[MO833] Paramount Iteration,12,88,0.099534,11.644874
[MO833] Paramount Iteration,1,88,0.099582,11.645299
[MO833] Paramount Iteration,3,88,0.099555,11.645387
[MO833] Paramount Iteration,5,88,0.099591,11.645311
[MO833] Paramount Iteration,7,88,0.099590,11.645250
[MO833] Paramount Iteration,15,88,0.099508,11.645196
[MO833] Paramount Iteration,9,88,0.099599,11.645189
[MO833] Paramount Iteration,11,88,0.099536,11.645378
[MO833] Paramount Iteration,13,88,0.099579,11.645144
[MO833] Paramount Iteration,0,89,0.181331,11.826853
[MO833] Paramount Iteration,2,89,0.181558,11.826960
[MO833] Paramount Iteration,4,89,0.181520,11.826874
[MO833] Paramount Iteration,6,89,0.181525,11.826795
[MO833] Paramount Iteration,14,89,0.181512,11.826769
[MO833] Paramount Iteration,8,89,0.181538,11.826778
[MO833] Paramount Iteration,10,89,0.181555,11.826945
[MO833] Paramount Iteration,12,89,0.181538,11.826465
[MO833] Paramount Iteration,1,89,0.181563,11.826873
[MO833] Paramount Iteration,3,89,0.181521,11.826956
[MO833] Paramount Iteration,5,89,0.181571,11.826891
[MO833] Paramount Iteration,7,89,0.181474,11.826785
[MO833] Paramount Iteration,15,89,0.181536,11.826758
[MO833] Paramount Iteration,9,89,0.181590,11.826788
[MO833] Paramount Iteration,11,89,0.181506,11.826946
[MO833] Paramount Iteration,13,89,0.181580,11.826732
[MO833] Paramount Iteration,0,90,0.135012,11.962149
[MO833] Paramount Iteration,3,90,0.135232,11.962238
[MO833] Paramount Iteration,11,90,0.135229,11.962241
[MO833] Paramount Iteration,12,90,0.135247,11.961761
[MO833] Paramount Iteration,4,90,0.135290,11.962219
[MO833] Paramount Iteration,7,90,0.135321,11.962130
[MO833] Paramount Iteration,15,90,0.135235,11.962066
[MO833] Paramount Iteration,8,90,0.135211,11.962044
[MO833] Paramount Iteration,2,90,0.135402,11.962369
[MO833] Paramount Iteration,14,90,0.135409,11.962193
[MO833] Paramount Iteration,5,90,0.135478,11.962376
[MO833] Paramount Iteration,9,90,0.135395,11.962193
[MO833] Paramount Iteration,10,90,0.135400,11.962364
[MO833] Paramount Iteration,13,90,0.135432,11.962173
[MO833] Paramount Iteration,1,90,0.135460,11.962355
[MO833] Paramount Iteration,6,90,0.135470,11.962309
[MO833] Paramount Iteration,0,91,0.099187,12.061651
[MO833] Paramount Iteration,3,91,0.099474,12.061761
[MO833] Paramount Iteration,4,91,0.099413,12.061676
[MO833] Paramount Iteration,6,91,0.099284,12.061616
[MO833] Paramount Iteration,14,91,0.099393,12.061601
[MO833] Paramount Iteration,8,91,0.099457,12.061550
[MO833] Paramount Iteration,10,91,0.099398,12.061776
[MO833] Paramount Iteration,12,91,0.099436,12.061240
[MO833] Paramount Iteration,1,91,0.099267,12.061666
[MO833] Paramount Iteration,2,91,0.099393,12.061775
[MO833] Paramount Iteration,5,91,0.099281,12.061687
[MO833] Paramount Iteration,7,91,0.099456,12.061605
[MO833] Paramount Iteration,15,91,0.099474,12.061605
[MO833] Paramount Iteration,9,91,0.099353,12.061561
[MO833] Paramount Iteration,11,91,0.099484,12.061777
[MO833] Paramount Iteration,13,91,0.099323,12.061509
[MO833] Paramount Iteration,0,92,0.181436,12.243351
[MO833] Paramount Iteration,4,92,0.181688,12.243417
[MO833] Paramount Iteration,1,92,0.181691,12.243373
[MO833] Paramount Iteration,3,92,0.181659,12.243473
[MO833] Paramount Iteration,5,92,0.181739,12.243436
[MO833] Paramount Iteration,6,92,0.181699,12.243367
[MO833] Paramount Iteration,14,92,0.181727,12.243354
[MO833] Paramount Iteration,8,92,0.181666,12.243272
[MO833] Paramount Iteration,10,92,0.181703,12.243497
[MO833] Paramount Iteration,12,92,0.181706,12.243001
[MO833] Paramount Iteration,2,92,0.181722,12.243503
[MO833] Paramount Iteration,7,92,0.181723,12.243359
[MO833] Paramount Iteration,15,92,0.181668,12.243345
[MO833] Paramount Iteration,9,92,0.181708,12.243281
[MO833] Paramount Iteration,11,92,0.181660,12.243497
[MO833] Paramount Iteration,13,92,0.181755,12.243275
[MO833] Paramount Iteration,2,93,0.099805,12.343314
[MO833] Paramount Iteration,4,93,0.099813,12.343282
[MO833] Paramount Iteration,6,93,0.099776,12.343193
[MO833] Paramount Iteration,14,93,0.099756,12.343127
[MO833] Paramount Iteration,8,93,0.099794,12.343126
[MO833] Paramount Iteration,10,93,0.099784,12.343295
[MO833] Paramount Iteration,12,93,0.099764,12.342820
[MO833] Paramount Iteration,0,93,0.099622,12.343261
[MO833] Paramount Iteration,3,93,0.099766,12.343310
[MO833] Paramount Iteration,5,93,0.099849,12.343293
[MO833] Paramount Iteration,7,93,0.099801,12.343187
[MO833] Paramount Iteration,15,93,0.099704,12.343118
[MO833] Paramount Iteration,9,93,0.099844,12.343138
[MO833] Paramount Iteration,11,93,0.099734,12.343295
[MO833] Paramount Iteration,13,93,0.099809,12.343091
[MO833] Paramount Iteration,1,93,0.100070,12.343457
[MO833] Paramount Iteration,0,94,0.100701,12.444043
[MO833] Paramount Iteration,2,94,0.100832,12.444153
[MO833] Paramount Iteration,1,94,0.100567,12.444064
[MO833] Paramount Iteration,3,94,0.100787,12.444146
[MO833] Paramount Iteration,4,94,0.100794,12.444129
[MO833] Paramount Iteration,6,94,0.100814,12.444053
[MO833] Paramount Iteration,14,94,0.100898,12.444044
[MO833] Paramount Iteration,8,94,0.100775,12.443960
[MO833] Paramount Iteration,10,94,0.100858,12.444170
[MO833] Paramount Iteration,12,94,0.100841,12.443714
[MO833] Paramount Iteration,5,94,0.100848,12.444150
[MO833] Paramount Iteration,7,94,0.100838,12.444045
[MO833] Paramount Iteration,15,94,0.100845,12.444033
[MO833] Paramount Iteration,9,94,0.100819,12.443970
[MO833] Paramount Iteration,11,94,0.100807,12.444168
[MO833] Paramount Iteration,13,94,0.100889,12.443988
[MO833] Paramount Iteration,0,95,0.182635,12.626747
[MO833] Paramount Iteration,2,95,0.182677,12.626836
[MO833] Paramount Iteration,4,95,0.182589,12.626774
[MO833] Paramount Iteration,6,95,0.182575,12.626683
[MO833] Paramount Iteration,8,95,0.182627,12.626640
[MO833] Paramount Iteration,12,95,0.182571,12.626339
[MO833] Paramount Iteration,1,95,0.182688,12.626763
[MO833] Paramount Iteration,3,95,0.182633,12.626828
[MO833] Paramount Iteration,5,95,0.182628,12.626785
[MO833] Paramount Iteration,7,95,0.182606,12.626679
[MO833] Paramount Iteration,14,95,0.182611,12.626669
[MO833] Paramount Iteration,9,95,0.182669,12.626650
[MO833] Paramount Iteration,10,95,0.182666,12.626849
[MO833] Paramount Iteration,13,95,0.182613,12.626608
[MO833] Paramount Iteration,15,95,0.182556,12.626659
[MO833] Paramount Iteration,11,95,0.182614,12.626848
[MO833] Paramount Iteration,0,96,0.100186,12.727038
[MO833] Paramount Iteration,2,96,0.100317,12.727160
[MO833] Paramount Iteration,4,96,0.100254,12.727080
[MO833] Paramount Iteration,6,96,0.100271,12.727006
[MO833] Paramount Iteration,14,96,0.100298,12.726984
[MO833] Paramount Iteration,8,96,0.100263,12.726958
[MO833] Paramount Iteration,12,96,0.100264,12.726655
[MO833] Paramount Iteration,1,96,0.100280,12.727055
[MO833] Paramount Iteration,3,96,0.100276,12.727156
[MO833] Paramount Iteration,5,96,0.100299,12.727093
[MO833] Paramount Iteration,7,96,0.100295,12.726996
[MO833] Paramount Iteration,15,96,0.100242,12.726973
[MO833] Paramount Iteration,9,96,0.100304,12.726965
[MO833] Paramount Iteration,10,96,0.100316,12.727179
[MO833] Paramount Iteration,13,96,0.100306,12.726923
[MO833] Paramount Iteration,11,96,0.100262,12.727176
[MO833] Paramount Iteration,0,97,0.100005,12.827152
[MO833] Paramount Iteration,3,97,0.100043,12.827248
[MO833] Paramount Iteration,4,97,0.100087,12.827219
[MO833] Paramount Iteration,8,97,0.100054,12.827065
[MO833] Paramount Iteration,12,97,0.100090,12.826799
[MO833] Paramount Iteration,1,97,0.100096,12.827167
[MO833] Paramount Iteration,2,97,0.100091,12.827257
[MO833] Paramount Iteration,5,97,0.100133,12.827234
[MO833] Paramount Iteration,6,97,0.100093,12.827147
[MO833] Paramount Iteration,14,97,0.100139,12.827137
[MO833] Paramount Iteration,9,97,0.100097,12.827075
[MO833] Paramount Iteration,10,97,0.100102,12.827293
[MO833] Paramount Iteration,13,97,0.100133,12.827067
[MO833] Paramount Iteration,7,97,0.100118,12.827141
[MO833] Paramount Iteration,15,97,0.100085,12.827127
[MO833] Paramount Iteration,11,97,0.100045,12.827291
[MO833] Paramount Iteration,0,98,0.181443,13.008622
[MO833] Paramount Iteration,3,98,0.181410,13.008708
[MO833] Paramount Iteration,4,98,0.181416,13.008688
[MO833] Paramount Iteration,6,98,0.181415,13.008607
[MO833] Paramount Iteration,1,98,0.181228,13.008642
[MO833] Paramount Iteration,2,98,0.181456,13.008720
[MO833] Paramount Iteration,5,98,0.181467,13.008708
[MO833] Paramount Iteration,7,98,0.181435,13.008597
[MO833] Paramount Iteration,14,98,0.181452,13.008601
[MO833] Paramount Iteration,8,98,0.181420,13.008539
[MO833] Paramount Iteration,10,98,0.181450,13.008756
[MO833] Paramount Iteration,12,98,0.181417,13.008267
[MO833] Paramount Iteration,15,98,0.181398,13.008589
[MO833] Paramount Iteration,9,98,0.181463,13.008549
[MO833] Paramount Iteration,11,98,0.181399,13.008756
[MO833] Paramount Iteration,13,98,0.181463,13.008539
[MO833] Paramount Iteration,0,99,0.100090,13.108808
[MO833] Paramount Iteration,2,99,0.100196,13.108923
[MO833] Paramount Iteration,4,99,0.100122,13.108862
[MO833] Paramount Iteration,6,99,0.100142,13.108797
[MO833] Paramount Iteration,8,99,0.100128,13.108725
[MO833] Paramount Iteration,10,99,0.100168,13.108936
[MO833] Paramount Iteration,12,99,0.100113,13.108436
[MO833] Paramount Iteration,1,99,0.100167,13.108825
[MO833] Paramount Iteration,3,99,0.100156,13.108919
[MO833] Paramount Iteration,5,99,0.100157,13.108873
[MO833] Paramount Iteration,7,99,0.100169,13.108790
[MO833] Paramount Iteration,14,99,0.100170,13.108782
[MO833] Paramount Iteration,9,99,0.100172,13.108734
[MO833] Paramount Iteration,11,99,0.100117,13.108935
[MO833] Paramount Iteration,13,99,0.100155,13.108703
[MO833] Paramount Iteration,15,99,0.100115,13.108773
     100    1727.5561    1930.0116     3712.096    3597.8437         3844          248   -156.58211 
[MO833] Paramount Iteration,1,100,0.156776,13.265619
[MO833] Paramount Iteration,2,100,0.156760,13.265691
[MO833] Paramount Iteration,6,100,0.156791,13.265598
[MO833] Paramount Iteration,14,100,0.156787,13.265584
[MO833] Paramount Iteration,8,100,0.156745,13.265524
[MO833] Paramount Iteration,10,100,0.156793,13.265742
[MO833] Paramount Iteration,0,100,0.156758,13.265672
[MO833] Paramount Iteration,3,100,0.156725,13.265696
[MO833] Paramount Iteration,4,100,0.156852,13.265766
[MO833] Paramount Iteration,7,100,0.156751,13.265599
[MO833] Paramount Iteration,15,100,0.156744,13.265583
[MO833] Paramount Iteration,9,100,0.156778,13.265524
[MO833] Paramount Iteration,11,100,0.156750,13.265749
[MO833] Paramount Iteration,12,100,0.156819,13.265310
[MO833] Paramount Iteration,5,100,0.156879,13.265760
[MO833] Paramount Iteration,13,100,0.156852,13.265568
Loop time of 12.867 on 16 procs for 100 steps with 24000 atoms

Performance: 1.343 ns/day, 17.871 hours/ns, 7.772 timesteps/s
76.6% CPU use with 16 MPI tasks x 1 OpenMP threads

MPI task timing breakdown:
Section |  min time  |  avg time  |  max time  |%varavg| %total
---------------------------------------------------------------
Pair    | 0.00012755 | 3.7098     | 8.3308     | 194.4 | 28.83
Bond    | 9.799e-05  | 0.00017208 | 0.0002346  |   0.0 |  0.00
Kspace  | 1.5336     | 6.1091     | 9.7917     | 149.9 | 47.48
Neigh   | 2.4408     | 2.4672     | 2.4895     |   1.1 | 19.17
Comm    | 0.055223   | 0.17689    | 0.32487    |  28.0 |  1.37
Output  | 0.014696   | 0.016619   | 0.018008   |   0.7 |  0.13
Modify  | 0.20245    | 0.35276    | 0.502      |  23.3 |  2.74
Other   |            | 0.03453    |            |       |  0.27

Nlocal:    1500 ave 3011 max 0 min
Histogram: 8 0 0 0 0 0 0 0 0 8
Nghost:    7445.69 ave 14909 max 0 min
Histogram: 8 0 0 0 0 0 0 0 0 8
Neighs:    1.02051e+06 ave 2.25439e+06 max 0 min
Histogram: 8 0 0 0 0 0 0 0 4 4

Total # of neighbors = 16328129
Ave neighs/atom = 680.339
Ave special neighs/atom = 2
Neighbor list builds = 31
Dangerous builds = 0
Total wall time: 0:00:13
[MO833] Beta,0,0.050916
[MO833] PI avg,0,0.128669,100
[MO833] Total time,13.522001
[MO833] Beta,2,0.050947
[MO833] PI avg,2,0.128666,100
[MO833] Beta,9,0.050926
[MO833] PI avg,9,0.128667,100
[MO833] Beta,3,0.050945
[MO833] Beta,4,0.050918
[MO833] PI avg,3,0.128667,100
[MO833] PI avg,4,0.128670,100
[MO833] Beta,7,0.050926
[MO833] Beta,10,0.050927
[MO833] PI avg,10,0.128670,100
[MO833] Beta,13,0.050917
[MO833] PI avg,13,0.128669,100
[MO833] Beta,5,0.050926
[MO833] PI avg,5,0.128670,100
[MO833] PI avg,7,0.128668,100
[MO833] Beta,8,0.050934
[MO833] PI avg,8,0.128668,100
[MO833] Beta,11,0.050933
[MO833] PI avg,11,0.128670,100
[MO833] Beta,12,0.050903
[MO833] Beta,15,0.050929
[MO833] PI avg,15,0.128669,100
[MO833] PI avg,12,0.128669,100
[MO833] Beta,6,0.050961
[MO833] PI avg,6,0.128668,100
[MO833] Beta,14,0.050955
[MO833] PI avg,14,0.128670,100
[MO833] Beta,1,0.050981
[MO833] PI avg,1,0.128668,100
