LAMMPS (3 Mar 2020)
OMP_NUM_THREADS environment is not set. Defaulting to 1 thread. (src/comm.cpp:94)
  using 1 OpenMP thread(s) per MPI task
Reading data file ...
  orthogonal box = (-27.5 -38.5 -36.3646) to (27.5 38.5 36.3615)
  2 by 4 by 2 MPI processor grid
  reading atoms ...
  32000 atoms
  reading velocities ...
  32000 velocities
  scanning bonds ...
  4 = max bonds/atom
  scanning angles ...
  8 = max angles/atom
  scanning dihedrals ...
  18 = max dihedrals/atom
  scanning impropers ...
  2 = max impropers/atom
  reading bonds ...
  27723 bonds
  reading angles ...
  40467 angles
  reading dihedrals ...
  56829 dihedrals
  reading impropers ...
  1034 impropers
Finding 1-2 1-3 1-4 neighbors ...
  special bond factors lj:   0          0          0         
  special bond factors coul: 0          0          0         
  4 = max # of 1-2 neighbors
  12 = max # of 1-3 neighbors
  24 = max # of 1-4 neighbors
  26 = max # of special neighbors
  special bonds CPU = 0.0112047 secs
  read_data CPU = 0.409719 secs
Replicating atoms ...
  orthogonal box = (-27.5 -38.5 -36.3646) to (27.5 38.5 36.3615)
  2 by 4 by 2 MPI processor grid
  32000 atoms
  27723 bonds
  40467 angles
  56829 dihedrals
  1034 impropers
Finding 1-2 1-3 1-4 neighbors ...
  special bond factors lj:   0          0          0         
  special bond factors coul: 0          0          0         
  4 = max # of 1-2 neighbors
  12 = max # of 1-3 neighbors
  24 = max # of 1-4 neighbors
  26 = max # of special neighbors
  special bonds CPU = 0.00717759 secs
  replicate CPU = 0.0486159 secs
Finding SHAKE clusters ...
  1617 = # of size 2 clusters
  3633 = # of size 3 clusters
  747 = # of size 4 clusters
  4233 = # of frozen angles
  find clusters CPU = 0.00556827 secs
PPPM initialization ...
  using 12-bit tables for long-range coulomb (src/kspace.cpp:332)
  G vector (1/distance) = 0.248835
  grid = 25 32 32
  stencil order = 5
  estimated absolute RMS force accuracy = 0.0355478
  estimated relative force accuracy = 0.000107051
  using double precision KISS FFT
  3d grid and FFT values/proc = 4914 1664
Neighbor list info ...
  update every 1 steps, delay 5 steps, check yes
  max neighbors/atom: 2000, page size: 100000
  master list distance cutoff = 12
  ghost atom cutoff = 12
  binsize = 6, bins = 10 13 13
  1 neighbor lists, perpetual/occasional/extra = 1 0 0
  (1) pair lj/charmm/coul/long, perpetual
      attributes: half, newton on
      pair build: half/bin/newton
      stencil: half/bin/3d/newton
      bin: standard
Setting up Verlet run ...
  Unit style    : real
  Current step  : 0
  Time step     : 2
Per MPI rank memory allocation (min/avg/max) = 21.86 | 21.97 | 22.45 Mbytes
---------------- Step        0 ----- CPU =      0.0000 (sec) ----------------
TotEng   =    -25356.2064 KinEng   =     21444.8313 Temp     =       299.0397 
PotEng   =    -46801.0377 E_bond   =      2537.9940 E_angle  =     10921.3742 
E_dihed  =      5211.7865 E_impro  =       213.5116 E_vdwl   =     -2307.8634 
E_coul   =    207025.8927 E_long   =   -270403.7333 Press    =      -149.3301 
Volume   =    307995.0335 
[MO833] Paramount Iteration,0,1,0.028594,0.602776
[MO833] Paramount Iteration,2,1,0.028568,0.625610
[MO833] Paramount Iteration,6,1,0.028557,0.625237
[MO833] Paramount Iteration,1,1,0.028594,0.610849
[MO833] Paramount Iteration,3,1,0.028564,0.625612
[MO833] Paramount Iteration,7,1,0.028562,0.625240
[MO833] Paramount Iteration,4,1,0.028586,0.625271
[MO833] Paramount Iteration,12,1,0.028586,0.625341
[MO833] Paramount Iteration,14,1,0.028561,0.625255
[MO833] Paramount Iteration,10,1,0.028575,0.625266
[MO833] Paramount Iteration,8,1,0.028585,0.625265
[MO833] Paramount Iteration,5,1,0.028596,0.625277
[MO833] Paramount Iteration,13,1,0.028586,0.625343
[MO833] Paramount Iteration,15,1,0.028561,0.625255
[MO833] Paramount Iteration,11,1,0.028575,0.625258
[MO833] Paramount Iteration,9,1,0.028584,0.625266
[MO833] Paramount Iteration,0,2,0.028369,0.631375
[MO833] Paramount Iteration,2,2,0.028580,0.654239
[MO833] Paramount Iteration,4,2,0.028547,0.653873
[MO833] Paramount Iteration,12,2,0.028514,0.653914
[MO833] Paramount Iteration,10,2,0.028545,0.653867
[MO833] Paramount Iteration,8,2,0.028553,0.653843
[MO833] Paramount Iteration,1,2,0.028581,0.639448
[MO833] Paramount Iteration,3,2,0.028610,0.654242
[MO833] Paramount Iteration,6,2,0.028580,0.653874
[MO833] Paramount Iteration,5,2,0.028578,0.653874
[MO833] Paramount Iteration,13,2,0.028555,0.653916
[MO833] Paramount Iteration,14,2,0.028564,0.653886
[MO833] Paramount Iteration,11,2,0.028579,0.653859
[MO833] Paramount Iteration,9,2,0.028511,0.653843
[MO833] Paramount Iteration,7,2,0.028608,0.653873
[MO833] Paramount Iteration,15,2,0.028606,0.653886
[MO833] Paramount Iteration,2,3,0.028914,0.683164
[MO833] Paramount Iteration,6,3,0.028905,0.682789
[MO833] Paramount Iteration,4,3,0.028872,0.682791
[MO833] Paramount Iteration,3,3,0.028878,0.683163
[MO833] Paramount Iteration,7,3,0.028872,0.682787
[MO833] Paramount Iteration,5,3,0.028902,0.682792
[MO833] Paramount Iteration,12,3,0.028884,0.682853
[MO833] Paramount Iteration,14,3,0.028897,0.682803
[MO833] Paramount Iteration,10,3,0.028884,0.682805
[MO833] Paramount Iteration,8,3,0.028901,0.682799
[MO833] Paramount Iteration,0,3,0.028718,0.660331
[MO833] Paramount Iteration,13,3,0.028923,0.682855
[MO833] Paramount Iteration,15,3,0.028850,0.682803
[MO833] Paramount Iteration,11,3,0.028920,0.682798
[MO833] Paramount Iteration,9,3,0.028935,0.682800
[MO833] Paramount Iteration,1,3,0.028938,0.668404
[MO833] Paramount Iteration,0,4,0.028682,0.689234
[MO833] Paramount Iteration,2,4,0.028927,0.712099
[MO833] Paramount Iteration,6,4,0.028905,0.711730
[MO833] Paramount Iteration,4,4,0.028914,0.711720
[MO833] Paramount Iteration,12,4,0.028913,0.711782
[MO833] Paramount Iteration,10,4,0.028872,0.711729
[MO833] Paramount Iteration,8,4,0.028893,0.711713
[MO833] Paramount Iteration,1,4,0.028771,0.697307
[MO833] Paramount Iteration,3,4,0.028892,0.712098
[MO833] Paramount Iteration,7,4,0.028928,0.711730
[MO833] Paramount Iteration,5,4,0.028885,0.711721
[MO833] Paramount Iteration,13,4,0.028880,0.711784
[MO833] Paramount Iteration,14,4,0.028917,0.711738
[MO833] Paramount Iteration,11,4,0.028905,0.711721
[MO833] Paramount Iteration,9,4,0.028851,0.711716
[MO833] Paramount Iteration,15,4,0.028883,0.711738
[MO833] Paramount Iteration,0,5,0.028786,0.718282
[MO833] Paramount Iteration,2,5,0.029040,0.741147
[MO833] Paramount Iteration,6,5,0.029040,0.740780
[MO833] Paramount Iteration,4,5,0.029041,0.740775
[MO833] Paramount Iteration,12,5,0.029013,0.740810
[MO833] Paramount Iteration,14,5,0.028993,0.740749
[MO833] Paramount Iteration,10,5,0.028972,0.740753
[MO833] Paramount Iteration,8,5,0.028973,0.740737
[MO833] Paramount Iteration,1,5,0.029015,0.726356
[MO833] Paramount Iteration,3,5,0.029009,0.741150
[MO833] Paramount Iteration,7,5,0.029007,0.740783
[MO833] Paramount Iteration,5,5,0.029005,0.740776
[MO833] Paramount Iteration,13,5,0.028980,0.740809
[MO833] Paramount Iteration,15,5,0.028924,0.740752
[MO833] Paramount Iteration,11,5,0.029012,0.740751
[MO833] Paramount Iteration,9,5,0.029007,0.740739
[MO833] Paramount Iteration,2,6,0.028775,0.769932
[MO833] Paramount Iteration,4,6,0.028728,0.769542
[MO833] Paramount Iteration,12,6,0.028753,0.769574
[MO833] Paramount Iteration,10,6,0.028755,0.769530
[MO833] Paramount Iteration,8,6,0.028736,0.769527
[MO833] Paramount Iteration,0,6,0.028546,0.747052
[MO833] Paramount Iteration,3,6,0.028743,0.769934
[MO833] Paramount Iteration,6,6,0.028747,0.769566
[MO833] Paramount Iteration,5,6,0.028755,0.769544
[MO833] Paramount Iteration,13,6,0.028721,0.769573
[MO833] Paramount Iteration,14,6,0.028757,0.769526
[MO833] Paramount Iteration,11,6,0.028721,0.769529
[MO833] Paramount Iteration,9,6,0.028771,0.769529
[MO833] Paramount Iteration,1,6,0.028753,0.755126
[MO833] Paramount Iteration,7,6,0.028772,0.769568
[MO833] Paramount Iteration,15,6,0.028726,0.769529
[MO833] Paramount Iteration,0,7,0.029095,0.776169
[MO833] Paramount Iteration,2,7,0.029097,0.799038
[MO833] Paramount Iteration,4,7,0.029105,0.798660
[MO833] Paramount Iteration,12,7,0.029103,0.798730
[MO833] Paramount Iteration,10,7,0.029089,0.798673
[MO833] Paramount Iteration,8,7,0.029070,0.798650
[MO833] Paramount Iteration,1,7,0.029023,0.784242
[MO833] Paramount Iteration,3,7,0.029065,0.799038
[MO833] Paramount Iteration,6,7,0.029081,0.798660
[MO833] Paramount Iteration,5,7,0.029072,0.798662
[MO833] Paramount Iteration,13,7,0.029142,0.798732
[MO833] Paramount Iteration,14,7,0.029085,0.798686
[MO833] Paramount Iteration,11,7,0.029123,0.798666
[MO833] Paramount Iteration,9,7,0.029105,0.798651
[MO833] Paramount Iteration,7,7,0.029046,0.798662
[MO833] Paramount Iteration,15,7,0.029138,0.798686
[MO833] Paramount Iteration,2,8,0.028905,0.827950
[MO833] Paramount Iteration,6,8,0.028854,0.827526
[MO833] Paramount Iteration,4,8,0.028880,0.827552
[MO833] Paramount Iteration,12,8,0.028795,0.827578
[MO833] Paramount Iteration,14,8,0.028790,0.827497
[MO833] Paramount Iteration,10,8,0.028852,0.827546
[MO833] Paramount Iteration,8,8,0.028877,0.827547
[MO833] Paramount Iteration,3,8,0.028878,0.827954
[MO833] Paramount Iteration,7,8,0.028809,0.827529
[MO833] Paramount Iteration,5,8,0.028848,0.827553
[MO833] Paramount Iteration,13,8,0.028830,0.827578
[MO833] Paramount Iteration,15,8,0.028736,0.827497
[MO833] Paramount Iteration,11,8,0.028815,0.827543
[MO833] Paramount Iteration,9,8,0.028837,0.827551
[MO833] Paramount Iteration,0,8,0.028663,0.805093
[MO833] Paramount Iteration,1,8,0.028902,0.813166
[MO833] Paramount Iteration,2,9,0.028484,0.856466
[MO833] Paramount Iteration,6,9,0.028516,0.856082
[MO833] Paramount Iteration,4,9,0.028523,0.856112
[MO833] Paramount Iteration,12,9,0.028553,0.856146
[MO833] Paramount Iteration,14,9,0.028558,0.856073
[MO833] Paramount Iteration,10,9,0.028500,0.856066
[MO833] Paramount Iteration,8,9,0.028474,0.856075
[MO833] Paramount Iteration,0,9,0.028299,0.833630
[MO833] Paramount Iteration,3,9,0.028507,0.856469
[MO833] Paramount Iteration,7,9,0.028543,0.856085
[MO833] Paramount Iteration,5,9,0.028564,0.856129
[MO833] Paramount Iteration,13,9,0.028520,0.856146
[MO833] Paramount Iteration,15,9,0.028523,0.856073
[MO833] Paramount Iteration,11,9,0.028462,0.856061
[MO833] Paramount Iteration,9,9,0.028516,0.856084
[MO833] Paramount Iteration,1,9,0.028504,0.841703
[MO833] Paramount Iteration,2,10,0.063667,0.920143
[MO833] Paramount Iteration,6,10,0.063658,0.919752
[MO833] Paramount Iteration,1,10,0.063593,0.905391
[MO833] Paramount Iteration,3,10,0.063633,0.920142
[MO833] Paramount Iteration,7,10,0.063623,0.919754
[MO833] Paramount Iteration,4,10,0.063631,0.919785
[MO833] Paramount Iteration,12,10,0.063688,0.919846
[MO833] Paramount Iteration,14,10,0.063673,0.919765
[MO833] Paramount Iteration,8,10,0.063696,0.919826
[MO833] Paramount Iteration,5,10,0.063653,0.919788
[MO833] Paramount Iteration,13,10,0.063658,0.919848
[MO833] Paramount Iteration,15,10,0.063641,0.919765
[MO833] Paramount Iteration,10,10,0.063695,0.919815
[MO833] Paramount Iteration,9,10,0.063731,0.919828
[MO833] Paramount Iteration,11,10,0.063728,0.919807
[MO833] Paramount Iteration,0,10,0.063675,0.897508
[MO833] Paramount Iteration,0,11,0.028572,0.926124
[MO833] Paramount Iteration,2,11,0.028849,0.949001
[MO833] Paramount Iteration,8,11,0.028732,0.948609
[MO833] Paramount Iteration,1,11,0.028729,0.934197
[MO833] Paramount Iteration,3,11,0.028818,0.949003
[MO833] Paramount Iteration,6,11,0.028824,0.948623
[MO833] Paramount Iteration,4,11,0.028786,0.948623
[MO833] Paramount Iteration,12,11,0.028808,0.948670
[MO833] Paramount Iteration,14,11,0.028819,0.948603
[MO833] Paramount Iteration,10,11,0.028796,0.948632
[MO833] Paramount Iteration,9,11,0.028767,0.948612
[MO833] Paramount Iteration,7,11,0.028854,0.948626
[MO833] Paramount Iteration,5,11,0.028820,0.948624
[MO833] Paramount Iteration,13,11,0.028776,0.948672
[MO833] Paramount Iteration,15,11,0.028787,0.948603
[MO833] Paramount Iteration,11,11,0.028763,0.948625
[MO833] Paramount Iteration,0,12,0.028835,0.954979
[MO833] Paramount Iteration,2,12,0.028810,0.977821
[MO833] Paramount Iteration,6,12,0.028765,0.977430
[MO833] Paramount Iteration,4,12,0.028810,0.977450
[MO833] Paramount Iteration,12,12,0.028791,0.977479
[MO833] Paramount Iteration,14,12,0.028723,0.977385
[MO833] Paramount Iteration,10,12,0.028734,0.977418
[MO833] Paramount Iteration,8,12,0.028787,0.977446
[MO833] Paramount Iteration,1,12,0.028786,0.963053
[MO833] Paramount Iteration,3,12,0.028780,0.977823
[MO833] Paramount Iteration,7,12,0.028794,0.977433
[MO833] Paramount Iteration,5,12,0.028771,0.977451
[MO833] Paramount Iteration,13,12,0.028760,0.977482
[MO833] Paramount Iteration,15,12,0.028766,0.977388
[MO833] Paramount Iteration,11,12,0.028768,0.977412
[MO833] Paramount Iteration,9,12,0.028819,0.977447
[MO833] Paramount Iteration,0,13,0.028517,0.983717
[MO833] Paramount Iteration,2,13,0.028736,1.006567
[MO833] Paramount Iteration,6,13,0.028683,1.006153
[MO833] Paramount Iteration,4,13,0.028705,1.006170
[MO833] Paramount Iteration,12,13,0.028675,1.006207
[MO833] Paramount Iteration,14,13,0.028698,1.006135
[MO833] Paramount Iteration,10,13,0.028687,1.006157
[MO833] Paramount Iteration,8,13,0.028712,1.006176
[MO833] Paramount Iteration,1,13,0.028703,0.991791
[MO833] Paramount Iteration,3,13,0.028704,1.006567
[MO833] Paramount Iteration,7,13,0.028711,1.006156
[MO833] Paramount Iteration,5,13,0.028666,1.006173
[MO833] Paramount Iteration,13,13,0.028709,1.006207
[MO833] Paramount Iteration,15,13,0.028731,1.006135
[MO833] Paramount Iteration,11,13,0.028723,1.006152
[MO833] Paramount Iteration,9,13,0.028674,1.006180
[MO833] Paramount Iteration,2,14,0.028671,1.035246
[MO833] Paramount Iteration,6,14,0.028638,1.034828
[MO833] Paramount Iteration,4,14,0.028678,1.034864
[MO833] Paramount Iteration,12,14,0.028672,1.034894
[MO833] Paramount Iteration,14,14,0.028652,1.034807
[MO833] Paramount Iteration,10,14,0.028623,1.034835
[MO833] Paramount Iteration,8,14,0.028669,1.034864
[MO833] Paramount Iteration,3,14,0.028642,1.035248
[MO833] Paramount Iteration,7,14,0.028663,1.034831
[MO833] Paramount Iteration,5,14,0.028640,1.034865
[MO833] Paramount Iteration,13,14,0.028638,1.034893
[MO833] Paramount Iteration,15,14,0.028619,1.034807
[MO833] Paramount Iteration,11,14,0.028657,1.034827
[MO833] Paramount Iteration,9,14,0.028636,1.034872
[MO833] Paramount Iteration,0,14,0.028484,1.012409
[MO833] Paramount Iteration,1,14,0.028688,1.020510
[MO833] Paramount Iteration,0,15,0.028787,1.041431
[MO833] Paramount Iteration,2,15,0.029049,1.064305
[MO833] Paramount Iteration,4,15,0.028994,1.063906
[MO833] Paramount Iteration,12,15,0.029069,1.063975
[MO833] Paramount Iteration,8,15,0.029008,1.063926
[MO833] Paramount Iteration,1,15,0.028976,1.049504
[MO833] Paramount Iteration,3,15,0.029018,1.064307
[MO833] Paramount Iteration,6,15,0.029060,1.063933
[MO833] Paramount Iteration,5,15,0.029028,1.063910
[MO833] Paramount Iteration,13,15,0.029038,1.063977
[MO833] Paramount Iteration,14,15,0.029065,1.063937
[MO833] Paramount Iteration,10,15,0.029048,1.063934
[MO833] Paramount Iteration,9,15,0.029040,1.063927
[MO833] Paramount Iteration,7,15,0.029085,1.063931
[MO833] Paramount Iteration,15,15,0.029113,1.063937
[MO833] Paramount Iteration,11,15,0.029080,1.063926
[MO833] Paramount Iteration,2,16,0.028780,1.093117
[MO833] Paramount Iteration,6,16,0.028747,1.092720
[MO833] Paramount Iteration,4,16,0.028795,1.092746
[MO833] Paramount Iteration,12,16,0.028758,1.092784
[MO833] Paramount Iteration,10,16,0.028762,1.092715
[MO833] Paramount Iteration,8,16,0.028798,1.092743
[MO833] Paramount Iteration,1,16,0.028747,1.078358
[MO833] Paramount Iteration,3,16,0.028803,1.093120
[MO833] Paramount Iteration,7,16,0.028775,1.092722
[MO833] Paramount Iteration,5,16,0.028825,1.092747
[MO833] Paramount Iteration,13,16,0.028792,1.092784
[MO833] Paramount Iteration,14,16,0.028760,1.092717
[MO833] Paramount Iteration,11,16,0.028723,1.092709
[MO833] Paramount Iteration,9,16,0.028761,1.092749
[MO833] Paramount Iteration,15,16,0.028727,1.092717
[MO833] Paramount Iteration,0,16,0.028832,1.070285
[MO833] Paramount Iteration,0,17,0.029077,1.099592
[MO833] Paramount Iteration,2,17,0.029307,1.122456
[MO833] Paramount Iteration,6,17,0.029312,1.122078
[MO833] Paramount Iteration,4,17,0.029335,1.122097
[MO833] Paramount Iteration,12,17,0.029367,1.122162
[MO833] Paramount Iteration,14,17,0.029349,1.122085
[MO833] Paramount Iteration,10,17,0.029352,1.122087
[MO833] Paramount Iteration,8,17,0.029291,1.122087
[MO833] Paramount Iteration,1,17,0.029218,1.107663
[MO833] Paramount Iteration,3,17,0.029329,1.122457
[MO833] Paramount Iteration,7,17,0.029339,1.122078
[MO833] Paramount Iteration,5,17,0.029299,1.122099
[MO833] Paramount Iteration,13,17,0.029338,1.122164
[MO833] Paramount Iteration,15,17,0.029317,1.122086
[MO833] Paramount Iteration,11,17,0.029309,1.122079
[MO833] Paramount Iteration,9,17,0.029325,1.122089
[MO833] Paramount Iteration,2,18,0.064153,1.186638
[MO833] Paramount Iteration,6,18,0.064158,1.186249
[MO833] Paramount Iteration,4,18,0.064114,1.186257
[MO833] Paramount Iteration,12,18,0.064083,1.186294
[MO833] Paramount Iteration,14,18,0.064056,1.186204
[MO833] Paramount Iteration,10,18,0.064084,1.186225
[MO833] Paramount Iteration,3,18,0.064174,1.186640
[MO833] Paramount Iteration,7,18,0.064122,1.186252
[MO833] Paramount Iteration,5,18,0.064144,1.186258
[MO833] Paramount Iteration,13,18,0.064115,1.186293
[MO833] Paramount Iteration,15,18,0.064102,1.186208
[MO833] Paramount Iteration,11,18,0.064122,1.186222
[MO833] Paramount Iteration,8,18,0.064127,1.186266
[MO833] Paramount Iteration,1,18,0.064265,1.171947
[MO833] Paramount Iteration,9,18,0.064164,1.186271
[MO833] Paramount Iteration,0,18,0.064166,1.164003
[MO833] Paramount Iteration,2,19,0.029195,1.215864
[MO833] Paramount Iteration,12,19,0.029179,1.215523
[MO833] Paramount Iteration,14,19,0.029188,1.215454
[MO833] Paramount Iteration,10,19,0.029208,1.215456
[MO833] Paramount Iteration,8,19,0.029134,1.215453
[MO833] Paramount Iteration,0,19,0.028941,1.192991
[MO833] Paramount Iteration,3,19,0.029216,1.215866
[MO833] Paramount Iteration,6,19,0.029225,1.215488
[MO833] Paramount Iteration,4,19,0.029208,1.215482
[MO833] Paramount Iteration,13,19,0.029217,1.215525
[MO833] Paramount Iteration,15,19,0.029234,1.215457
[MO833] Paramount Iteration,11,19,0.029174,1.215455
[MO833] Paramount Iteration,9,19,0.029170,1.215457
[MO833] Paramount Iteration,1,19,0.029033,1.201064
[MO833] Paramount Iteration,7,19,0.029190,1.215492
[MO833] Paramount Iteration,5,19,0.029169,1.215483
[MO833] Paramount Iteration,2,20,0.029029,1.244924
[MO833] Paramount Iteration,10,20,0.029047,1.244524
[MO833] Paramount Iteration,1,20,0.028996,1.230168
[MO833] Paramount Iteration,3,20,0.029051,1.244927
[MO833] Paramount Iteration,6,20,0.029016,1.244546
[MO833] Paramount Iteration,12,20,0.029098,1.244634
[MO833] Paramount Iteration,11,20,0.029010,1.244520
[MO833] Paramount Iteration,8,20,0.029059,1.244563
[MO833] Paramount Iteration,7,20,0.029045,1.244549
[MO833] Paramount Iteration,4,20,0.029069,1.244595
[MO833] Paramount Iteration,13,20,0.029071,1.244637
[MO833] Paramount Iteration,14,20,0.029053,1.244528
[MO833] Paramount Iteration,9,20,0.029095,1.244567
[MO833] Paramount Iteration,5,20,0.029097,1.244596
[MO833] Paramount Iteration,15,20,0.029018,1.244528
[MO833] Paramount Iteration,0,20,0.029084,1.222095
[MO833] Paramount Iteration,0,21,0.028931,1.251262
[MO833] Paramount Iteration,2,21,0.029196,1.274131
[MO833] Paramount Iteration,6,21,0.029163,1.273749
[MO833] Paramount Iteration,4,21,0.029127,1.273769
[MO833] Paramount Iteration,12,21,0.029152,1.273797
[MO833] Paramount Iteration,14,21,0.029174,1.273720
[MO833] Paramount Iteration,10,21,0.029191,1.273735
[MO833] Paramount Iteration,8,21,0.029143,1.273725
[MO833] Paramount Iteration,1,21,0.029082,1.259335
[MO833] Paramount Iteration,3,21,0.029166,1.274133
[MO833] Paramount Iteration,7,21,0.029190,1.273752
[MO833] Paramount Iteration,5,21,0.029158,1.273771
[MO833] Paramount Iteration,13,21,0.029123,1.273798
[MO833] Paramount Iteration,15,21,0.029140,1.273720
[MO833] Paramount Iteration,11,21,0.029151,1.273729
[MO833] Paramount Iteration,9,21,0.029105,1.273729
[MO833] Paramount Iteration,0,22,0.029033,1.280510
[MO833] Paramount Iteration,2,22,0.029240,1.303402
[MO833] Paramount Iteration,6,22,0.029217,1.302978
[MO833] Paramount Iteration,4,22,0.029141,1.302957
[MO833] Paramount Iteration,12,22,0.029149,1.302997
[MO833] Paramount Iteration,14,22,0.029150,1.302933
[MO833] Paramount Iteration,10,22,0.029195,1.302988
[MO833] Paramount Iteration,8,22,0.029217,1.302962
[MO833] Paramount Iteration,1,22,0.029231,1.288584
[MO833] Paramount Iteration,3,22,0.029262,1.303404
[MO833] Paramount Iteration,7,22,0.029181,1.302982
[MO833] Paramount Iteration,5,22,0.029172,1.302958
[MO833] Paramount Iteration,13,22,0.029186,1.302999
[MO833] Paramount Iteration,15,22,0.029189,1.302931
[MO833] Paramount Iteration,11,22,0.029234,1.302984
[MO833] Paramount Iteration,9,22,0.029181,1.302971
[MO833] Paramount Iteration,0,23,0.029115,1.309871
[MO833] Paramount Iteration,2,23,0.029324,1.332757
[MO833] Paramount Iteration,4,23,0.029393,1.332367
[MO833] Paramount Iteration,8,23,0.029351,1.332370
[MO833] Paramount Iteration,1,23,0.029336,1.317944
[MO833] Paramount Iteration,3,23,0.029343,1.332756
[MO833] Paramount Iteration,6,23,0.029365,1.332387
[MO833] Paramount Iteration,5,23,0.029360,1.332372
[MO833] Paramount Iteration,12,23,0.029432,1.332447
[MO833] Paramount Iteration,14,23,0.029437,1.332390
[MO833] Paramount Iteration,10,23,0.029345,1.332387
[MO833] Paramount Iteration,9,23,0.029385,1.332371
[MO833] Paramount Iteration,7,23,0.029387,1.332384
[MO833] Paramount Iteration,13,23,0.029397,1.332449
[MO833] Paramount Iteration,15,23,0.029405,1.332390
[MO833] Paramount Iteration,11,23,0.029380,1.332379
[MO833] Paramount Iteration,2,24,0.029533,1.362297
[MO833] Paramount Iteration,4,24,0.029497,1.361909
[MO833] Paramount Iteration,12,24,0.029479,1.361941
[MO833] Paramount Iteration,10,24,0.029474,1.361881
[MO833] Paramount Iteration,8,24,0.029495,1.361885
[MO833] Paramount Iteration,0,24,0.029308,1.339417
[MO833] Paramount Iteration,3,24,0.029504,1.362299
[MO833] Paramount Iteration,6,24,0.029530,1.361928
[MO833] Paramount Iteration,5,24,0.029528,1.361913
[MO833] Paramount Iteration,13,24,0.029444,1.361941
[MO833] Paramount Iteration,14,24,0.029464,1.361874
[MO833] Paramount Iteration,11,24,0.029439,1.361879
[MO833] Paramount Iteration,9,24,0.029452,1.361888
[MO833] Paramount Iteration,1,24,0.029526,1.347490
[MO833] Paramount Iteration,7,24,0.029492,1.361931
[MO833] Paramount Iteration,15,24,0.029429,1.361874
[MO833] Paramount Iteration,0,25,0.029489,1.368926
[MO833] Paramount Iteration,2,25,0.029484,1.391810
[MO833] Paramount Iteration,4,25,0.029461,1.391413
[MO833] Paramount Iteration,12,25,0.029468,1.391470
[MO833] Paramount Iteration,8,25,0.029481,1.391421
[MO833] Paramount Iteration,1,25,0.029388,1.376999
[MO833] Paramount Iteration,3,25,0.029503,1.391810
[MO833] Paramount Iteration,6,25,0.029467,1.391434
[MO833] Paramount Iteration,5,25,0.029491,1.391416
[MO833] Paramount Iteration,13,25,0.029510,1.391472
[MO833] Paramount Iteration,14,25,0.029490,1.391419
[MO833] Paramount Iteration,10,25,0.029491,1.391428
[MO833] Paramount Iteration,9,25,0.029516,1.391422
[MO833] Paramount Iteration,7,25,0.029493,1.391437
[MO833] Paramount Iteration,15,25,0.029524,1.391419
[MO833] Paramount Iteration,11,25,0.029526,1.391420
[MO833] Paramount Iteration,2,26,0.065444,1.457262
[MO833] Paramount Iteration,6,26,0.065419,1.456865
[MO833] Paramount Iteration,4,26,0.065450,1.456880
[MO833] Paramount Iteration,12,26,0.065390,1.456918
[MO833] Paramount Iteration,14,26,0.065346,1.456816
[MO833] Paramount Iteration,10,26,0.065370,1.456851
[MO833] Paramount Iteration,8,26,0.065448,1.456890
[MO833] Paramount Iteration,1,26,0.065424,1.442501
[MO833] Paramount Iteration,3,26,0.065414,1.457264
[MO833] Paramount Iteration,7,26,0.065383,1.456866
[MO833] Paramount Iteration,5,26,0.065413,1.456882
[MO833] Paramount Iteration,13,26,0.065428,1.456918
[MO833] Paramount Iteration,15,26,0.065388,1.456825
[MO833] Paramount Iteration,11,26,0.065407,1.456846
[MO833] Paramount Iteration,9,26,0.065410,1.456895
[MO833] Paramount Iteration,0,26,0.065483,1.434428
[MO833] Paramount Iteration,2,27,0.029548,1.486821
[MO833] Paramount Iteration,6,27,0.029545,1.486427
[MO833] Paramount Iteration,4,27,0.029547,1.486444
[MO833] Paramount Iteration,10,27,0.029524,1.486430
[MO833] Paramount Iteration,3,27,0.029514,1.486820
[MO833] Paramount Iteration,7,27,0.029503,1.486428
[MO833] Paramount Iteration,5,27,0.029506,1.486445
[MO833] Paramount Iteration,12,27,0.029536,1.486512
[MO833] Paramount Iteration,14,27,0.029547,1.486432
[MO833] Paramount Iteration,11,27,0.029557,1.486422
[MO833] Paramount Iteration,8,27,0.029563,1.486475
[MO833] Paramount Iteration,13,27,0.029576,1.486514
[MO833] Paramount Iteration,15,27,0.029587,1.486431
[MO833] Paramount Iteration,9,27,0.029536,1.486490
[MO833] Paramount Iteration,0,27,0.029597,1.464218
[MO833] Paramount Iteration,1,27,0.029695,1.472289
[MO833] Paramount Iteration,0,28,0.029170,1.493405
[MO833] Paramount Iteration,2,28,0.029457,1.516288
[MO833] Paramount Iteration,4,28,0.029429,1.515889
[MO833] Paramount Iteration,8,28,0.029411,1.515914
[MO833] Paramount Iteration,1,28,0.029129,1.501475
[MO833] Paramount Iteration,3,28,0.029425,1.516290
[MO833] Paramount Iteration,6,28,0.029465,1.515909
[MO833] Paramount Iteration,5,28,0.029395,1.515894
[MO833] Paramount Iteration,12,28,0.029398,1.515967
[MO833] Paramount Iteration,14,28,0.029409,1.515894
[MO833] Paramount Iteration,10,28,0.029422,1.515909
[MO833] Paramount Iteration,9,28,0.029364,1.515915
[MO833] Paramount Iteration,7,28,0.029425,1.515912
[MO833] Paramount Iteration,13,28,0.029438,1.515969
[MO833] Paramount Iteration,15,28,0.029444,1.515894
[MO833] Paramount Iteration,11,28,0.029456,1.515901
[MO833] Paramount Iteration,0,29,0.029691,1.523121
[MO833] Paramount Iteration,8,29,0.029682,1.545614
[MO833] Paramount Iteration,1,29,0.029624,1.531194
[MO833] Paramount Iteration,2,29,0.029711,1.546012
[MO833] Paramount Iteration,6,29,0.029704,1.545634
[MO833] Paramount Iteration,4,29,0.029701,1.545610
[MO833] Paramount Iteration,12,29,0.029656,1.545679
[MO833] Paramount Iteration,14,29,0.029674,1.545628
[MO833] Paramount Iteration,10,29,0.029663,1.545627
[MO833] Paramount Iteration,9,29,0.029641,1.545615
[MO833] Paramount Iteration,3,29,0.029680,1.546014
[MO833] Paramount Iteration,7,29,0.029663,1.545637
[MO833] Paramount Iteration,5,29,0.029666,1.545614
[MO833] Paramount Iteration,13,29,0.029697,1.545682
[MO833] Paramount Iteration,15,29,0.029715,1.545628
[MO833] Paramount Iteration,11,29,0.029697,1.545619
[MO833] Paramount Iteration,0,30,0.029049,1.552189
[MO833] Paramount Iteration,2,30,0.029052,1.575075
[MO833] Paramount Iteration,1,30,0.029008,1.560262
[MO833] Paramount Iteration,3,30,0.029021,1.575077
[MO833] Paramount Iteration,6,30,0.029029,1.574684
[MO833] Paramount Iteration,4,30,0.029056,1.574684
[MO833] Paramount Iteration,12,30,0.029021,1.574754
[MO833] Paramount Iteration,10,30,0.028995,1.574681
[MO833] Paramount Iteration,8,30,0.029058,1.574694
[MO833] Paramount Iteration,7,30,0.028986,1.574685
[MO833] Paramount Iteration,5,30,0.029019,1.574686
[MO833] Paramount Iteration,13,30,0.029059,1.574755
[MO833] Paramount Iteration,14,30,0.028991,1.574684
[MO833] Paramount Iteration,11,30,0.029030,1.574673
[MO833] Paramount Iteration,9,30,0.029018,1.574695
[MO833] Paramount Iteration,15,30,0.029035,1.574685
[MO833] Paramount Iteration,2,31,0.029166,1.604252
[MO833] Paramount Iteration,4,31,0.029171,1.603873
[MO833] Paramount Iteration,12,31,0.029117,1.603923
[MO833] Paramount Iteration,1,31,0.029160,1.589485
[MO833] Paramount Iteration,3,31,0.029132,1.604252
[MO833] Paramount Iteration,6,31,0.029171,1.603874
[MO833] Paramount Iteration,5,31,0.029132,1.603875
[MO833] Paramount Iteration,13,31,0.029156,1.603926
[MO833] Paramount Iteration,14,31,0.029092,1.603859
[MO833] Paramount Iteration,10,31,0.029124,1.603861
[MO833] Paramount Iteration,8,31,0.029165,1.603881
[MO833] Paramount Iteration,0,31,0.029201,1.581412
[MO833] Paramount Iteration,7,31,0.029128,1.603876
[MO833] Paramount Iteration,15,31,0.029152,1.603860
[MO833] Paramount Iteration,11,31,0.029160,1.603853
[MO833] Paramount Iteration,9,31,0.029128,1.603886
[MO833] Paramount Iteration,0,32,0.029198,1.610812
[MO833] Paramount Iteration,2,32,0.029454,1.633717
[MO833] Paramount Iteration,4,32,0.029415,1.633306
[MO833] Paramount Iteration,8,32,0.029417,1.633315
[MO833] Paramount Iteration,1,32,0.029285,1.618888
[MO833] Paramount Iteration,3,32,0.029420,1.633716
[MO833] Paramount Iteration,6,32,0.029430,1.633324
[MO833] Paramount Iteration,5,32,0.029377,1.633308
[MO833] Paramount Iteration,12,32,0.029398,1.633376
[MO833] Paramount Iteration,14,32,0.029411,1.633331
[MO833] Paramount Iteration,10,32,0.029413,1.633334
[MO833] Paramount Iteration,9,32,0.029376,1.633317
[MO833] Paramount Iteration,7,32,0.029393,1.633328
[MO833] Paramount Iteration,13,32,0.029435,1.633378
[MO833] Paramount Iteration,15,32,0.029452,1.633331
[MO833] Paramount Iteration,11,32,0.029449,1.633326
[MO833] Paramount Iteration,2,33,0.029290,1.663014
[MO833] Paramount Iteration,6,33,0.029253,1.662600
[MO833] Paramount Iteration,14,33,0.029191,1.662573
[MO833] Paramount Iteration,10,33,0.029224,1.662617
[MO833] Paramount Iteration,3,33,0.029263,1.663017
[MO833] Paramount Iteration,7,33,0.029214,1.662603
[MO833] Paramount Iteration,4,33,0.029349,1.662671
[MO833] Paramount Iteration,12,33,0.029272,1.662700
[MO833] Paramount Iteration,15,33,0.029223,1.662573
[MO833] Paramount Iteration,11,33,0.029260,1.662609
[MO833] Paramount Iteration,8,33,0.029340,1.662673
[MO833] Paramount Iteration,5,33,0.029310,1.662672
[MO833] Paramount Iteration,13,33,0.029303,1.662696
[MO833] Paramount Iteration,9,33,0.029303,1.662678
[MO833] Paramount Iteration,0,33,0.029556,1.640392
[MO833] Paramount Iteration,1,33,0.029488,1.648465
[MO833] Paramount Iteration,2,34,0.029519,1.692546
[MO833] Paramount Iteration,14,34,0.029494,1.692130
[MO833] Paramount Iteration,10,34,0.029462,1.692132
[MO833] Paramount Iteration,8,34,0.029488,1.692184
[MO833] Paramount Iteration,1,34,0.029261,1.677778
[MO833] Paramount Iteration,3,34,0.029488,1.692548
[MO833] Paramount Iteration,6,34,0.029555,1.692172
[MO833] Paramount Iteration,4,34,0.029517,1.692205
[MO833] Paramount Iteration,12,34,0.029478,1.692236
[MO833] Paramount Iteration,15,34,0.029538,1.692133
[MO833] Paramount Iteration,11,34,0.029499,1.692127
[MO833] Paramount Iteration,9,34,0.029444,1.692185
[MO833] Paramount Iteration,7,34,0.029515,1.692176
[MO833] Paramount Iteration,5,34,0.029482,1.692209
[MO833] Paramount Iteration,13,34,0.029517,1.692236
[MO833] Paramount Iteration,0,34,0.029297,1.669705
[MO833] Paramount Iteration,0,35,0.029349,1.699248
[MO833] Paramount Iteration,1,35,0.029450,1.707318
[MO833] Paramount Iteration,2,35,0.029590,1.722145
[MO833] Paramount Iteration,4,35,0.029519,1.721739
[MO833] Paramount Iteration,12,35,0.029514,1.721812
[MO833] Paramount Iteration,10,35,0.029574,1.721763
[MO833] Paramount Iteration,8,35,0.029557,1.721758
[MO833] Paramount Iteration,3,35,0.029559,1.722147
[MO833] Paramount Iteration,6,35,0.029573,1.721766
[MO833] Paramount Iteration,5,35,0.029485,1.721743
[MO833] Paramount Iteration,13,35,0.029555,1.721814
[MO833] Paramount Iteration,14,35,0.029563,1.721757
[MO833] Paramount Iteration,11,35,0.029607,1.721755
[MO833] Paramount Iteration,9,35,0.029517,1.721759
[MO833] Paramount Iteration,7,35,0.029532,1.721769
[MO833] Paramount Iteration,15,35,0.029604,1.721757
[MO833] Paramount Iteration,2,36,0.064960,1.787117
[MO833] Paramount Iteration,6,36,0.064907,1.786693
[MO833] Paramount Iteration,12,36,0.064876,1.786744
[MO833] Paramount Iteration,14,36,0.064845,1.786666
[MO833] Paramount Iteration,10,36,0.064896,1.786714
[MO833] Paramount Iteration,8,36,0.064953,1.786731
[MO833] Paramount Iteration,0,36,0.064995,1.764260
[MO833] Paramount Iteration,3,36,0.064930,1.787119
[MO833] Paramount Iteration,7,36,0.064861,1.786697
[MO833] Paramount Iteration,4,36,0.064958,1.786712
[MO833] Paramount Iteration,13,36,0.064914,1.786744
[MO833] Paramount Iteration,15,36,0.064887,1.786666
[MO833] Paramount Iteration,11,36,0.064932,1.786708
[MO833] Paramount Iteration,9,36,0.064914,1.786734
[MO833] Paramount Iteration,1,36,0.064947,1.772336
[MO833] Paramount Iteration,5,36,0.064922,1.786713
[MO833] Paramount Iteration,2,37,0.029135,1.816263
[MO833] Paramount Iteration,4,37,0.029142,1.815874
[MO833] Paramount Iteration,12,37,0.029118,1.815918
[MO833] Paramount Iteration,10,37,0.029082,1.815853
[MO833] Paramount Iteration,8,37,0.029142,1.815892
[MO833] Paramount Iteration,1,37,0.029034,1.801496
[MO833] Paramount Iteration,3,37,0.029106,1.816266
[MO833] Paramount Iteration,6,37,0.029168,1.815881
[MO833] Paramount Iteration,5,37,0.029111,1.815875
[MO833] Paramount Iteration,13,37,0.029159,1.815921
[MO833] Paramount Iteration,14,37,0.029117,1.815852
[MO833] Paramount Iteration,11,37,0.029119,1.815847
[MO833] Paramount Iteration,9,37,0.029100,1.815893
[MO833] Paramount Iteration,7,37,0.029127,1.815885
[MO833] Paramount Iteration,15,37,0.029167,1.815852
[MO833] Paramount Iteration,0,37,0.028979,1.793423
[MO833] Paramount Iteration,0,38,0.029140,1.822765
[MO833] Paramount Iteration,8,38,0.029335,1.845249
[MO833] Paramount Iteration,1,38,0.029255,1.830838
[MO833] Paramount Iteration,6,38,0.029387,1.845288
[MO833] Paramount Iteration,4,38,0.029368,1.845257
[MO833] Paramount Iteration,12,38,0.029327,1.845304
[MO833] Paramount Iteration,14,38,0.029347,1.845247
[MO833] Paramount Iteration,10,38,0.029383,1.845288
[MO833] Paramount Iteration,9,38,0.029296,1.845250
[MO833] Paramount Iteration,2,38,0.029444,1.845717
[MO833] Paramount Iteration,7,38,0.029345,1.845290
[MO833] Paramount Iteration,5,38,0.029329,1.845258
[MO833] Paramount Iteration,13,38,0.029366,1.845306
[MO833] Paramount Iteration,15,38,0.029378,1.845248
[MO833] Paramount Iteration,11,38,0.029418,1.845281
[MO833] Paramount Iteration,3,38,0.029414,1.845719
[MO833] Paramount Iteration,2,39,0.028985,1.874715
[MO833] Paramount Iteration,4,39,0.029049,1.874325
[MO833] Paramount Iteration,1,39,0.029024,1.859945
[MO833] Paramount Iteration,3,39,0.028952,1.874715
[MO833] Paramount Iteration,6,39,0.029011,1.874318
[MO833] Paramount Iteration,5,39,0.029011,1.874328
[MO833] Paramount Iteration,12,39,0.029039,1.874394
[MO833] Paramount Iteration,10,39,0.028982,1.874323
[MO833] Paramount Iteration,8,39,0.029069,1.874340
[MO833] Paramount Iteration,7,39,0.028971,1.874322
[MO833] Paramount Iteration,13,39,0.029075,1.874396
[MO833] Paramount Iteration,14,39,0.029019,1.874328
[MO833] Paramount Iteration,11,39,0.029015,1.874315
[MO833] Paramount Iteration,9,39,0.029036,1.874348
[MO833] Paramount Iteration,15,39,0.029060,1.874327
[MO833] Paramount Iteration,0,39,0.029083,1.851870
[MO833] Paramount Iteration,0,40,0.028875,1.880948
[MO833] Paramount Iteration,2,40,0.029120,1.903846
[MO833] Paramount Iteration,4,40,0.029095,1.903436
[MO833] Paramount Iteration,12,40,0.029066,1.903509
[MO833] Paramount Iteration,1,40,0.028989,1.889013
[MO833] Paramount Iteration,3,40,0.029091,1.903849
[MO833] Paramount Iteration,6,40,0.029122,1.903461
[MO833] Paramount Iteration,5,40,0.029062,1.903441
[MO833] Paramount Iteration,13,40,0.029102,1.903511
[MO833] Paramount Iteration,14,40,0.029084,1.903462
[MO833] Paramount Iteration,10,40,0.029086,1.903462
[MO833] Paramount Iteration,8,40,0.029101,1.903464
[MO833] Paramount Iteration,7,40,0.029080,1.903462
[MO833] Paramount Iteration,15,40,0.029115,1.903462
[MO833] Paramount Iteration,11,40,0.029119,1.903454
[MO833] Paramount Iteration,9,40,0.029060,1.903466
[MO833] Paramount Iteration,0,41,0.029025,1.910000
[MO833] Paramount Iteration,2,41,0.029030,1.932888
[MO833] Paramount Iteration,12,41,0.028964,1.932524
[MO833] Paramount Iteration,10,41,0.028951,1.932467
[MO833] Paramount Iteration,8,41,0.028999,1.932484
[MO833] Paramount Iteration,1,41,0.028997,1.918087
[MO833] Paramount Iteration,3,41,0.029001,1.932890
[MO833] Paramount Iteration,6,41,0.029035,1.932512
[MO833] Paramount Iteration,4,41,0.029034,1.932492
[MO833] Paramount Iteration,13,41,0.028997,1.932523
[MO833] Paramount Iteration,14,41,0.028938,1.932463
[MO833] Paramount Iteration,11,41,0.028987,1.932462
[MO833] Paramount Iteration,9,41,0.028957,1.932485
[MO833] Paramount Iteration,7,41,0.028996,1.932515
[MO833] Paramount Iteration,5,41,0.029002,1.932493
[MO833] Paramount Iteration,15,41,0.028982,1.932466
[MO833] Paramount Iteration,0,42,0.029027,1.939048
[MO833] Paramount Iteration,2,42,0.029026,1.961927
[MO833] Paramount Iteration,4,42,0.029024,1.961531
[MO833] Paramount Iteration,1,42,0.028934,1.947117
[MO833] Paramount Iteration,3,42,0.028996,1.961929
[MO833] Paramount Iteration,6,42,0.029016,1.961548
[MO833] Paramount Iteration,5,42,0.028990,1.961536
[MO833] Paramount Iteration,12,42,0.029033,1.961603
[MO833] Paramount Iteration,14,42,0.029031,1.961546
[MO833] Paramount Iteration,10,42,0.029023,1.961542
[MO833] Paramount Iteration,8,42,0.029057,1.961564
[MO833] Paramount Iteration,7,42,0.028970,1.961547
[MO833] Paramount Iteration,13,42,0.029068,1.961605
[MO833] Paramount Iteration,15,42,0.029065,1.961546
[MO833] Paramount Iteration,11,42,0.029054,1.961534
[MO833] Paramount Iteration,9,42,0.029017,1.961565
[MO833] Paramount Iteration,0,43,0.029285,1.968347
[MO833] Paramount Iteration,2,43,0.029301,1.991240
[MO833] Paramount Iteration,4,43,0.029290,1.990839
[MO833] Paramount Iteration,1,43,0.029235,1.976420
[MO833] Paramount Iteration,3,43,0.029271,1.991242
[MO833] Paramount Iteration,6,43,0.029277,1.990838
[MO833] Paramount Iteration,5,43,0.029252,1.990843
[MO833] Paramount Iteration,12,43,0.029262,1.990917
[MO833] Paramount Iteration,14,43,0.029233,1.990839
[MO833] Paramount Iteration,10,43,0.029240,1.990838
[MO833] Paramount Iteration,8,43,0.029271,1.990857
[MO833] Paramount Iteration,7,43,0.029235,1.990839
[MO833] Paramount Iteration,13,43,0.029302,1.990922
[MO833] Paramount Iteration,15,43,0.029271,1.990836
[MO833] Paramount Iteration,11,43,0.029275,1.990830
[MO833] Paramount Iteration,9,43,0.029228,1.990858
[MO833] Paramount Iteration,2,44,0.029320,2.020572
[MO833] Paramount Iteration,4,44,0.029310,2.020170
[MO833] Paramount Iteration,12,44,0.029237,2.020207
[MO833] Paramount Iteration,14,44,0.029251,2.020145
[MO833] Paramount Iteration,10,44,0.029251,2.020142
[MO833] Paramount Iteration,8,44,0.029279,2.020160
[MO833] Paramount Iteration,0,44,0.029315,1.997682
[MO833] Paramount Iteration,3,44,0.029290,2.020574
[MO833] Paramount Iteration,6,44,0.029345,2.020198
[MO833] Paramount Iteration,5,44,0.029274,2.020173
[MO833] Paramount Iteration,13,44,0.029269,2.020206
[MO833] Paramount Iteration,15,44,0.029293,2.020147
[MO833] Paramount Iteration,11,44,0.029285,2.020136
[MO833] Paramount Iteration,9,44,0.029238,2.020164
[MO833] Paramount Iteration,1,44,0.029272,2.005755
[MO833] Paramount Iteration,7,44,0.029309,2.020202
[MO833] Paramount Iteration,0,45,0.064891,2.062606
[MO833] Paramount Iteration,1,45,0.064805,2.070679
[MO833] Paramount Iteration,2,45,0.064923,2.085508
[MO833] Paramount Iteration,6,45,0.064913,2.085127
[MO833] Paramount Iteration,10,45,0.064926,2.085120
[MO833] Paramount Iteration,8,45,0.064930,2.085109
[MO833] Paramount Iteration,3,45,0.064893,2.085510
[MO833] Paramount Iteration,7,45,0.064868,2.085125
[MO833] Paramount Iteration,4,45,0.064968,2.085153
[MO833] Paramount Iteration,12,45,0.064976,2.085230
[MO833] Paramount Iteration,14,45,0.064928,2.085124
[MO833] Paramount Iteration,11,45,0.064959,2.085112
[MO833] Paramount Iteration,9,45,0.064890,2.085110
[MO833] Paramount Iteration,5,45,0.064943,2.085167
[MO833] Paramount Iteration,13,45,0.065011,2.085232
[MO833] Paramount Iteration,15,45,0.064960,2.085124
[MO833] Paramount Iteration,2,46,0.029259,2.114781
[MO833] Paramount Iteration,6,46,0.029228,2.114373
[MO833] Paramount Iteration,4,46,0.029219,2.114393
[MO833] Paramount Iteration,12,46,0.029153,2.114435
[MO833] Paramount Iteration,10,46,0.029200,2.114369
[MO833] Paramount Iteration,0,46,0.029311,2.091936
[MO833] Paramount Iteration,3,46,0.029228,2.114783
[MO833] Paramount Iteration,7,46,0.029185,2.114373
[MO833] Paramount Iteration,5,46,0.029178,2.114394
[MO833] Paramount Iteration,13,46,0.029188,2.114435
[MO833] Paramount Iteration,14,46,0.029190,2.114369
[MO833] Paramount Iteration,11,46,0.029233,2.114363
[MO833] Paramount Iteration,8,46,0.029281,2.114408
[MO833] Paramount Iteration,1,46,0.029361,2.100100
[MO833] Paramount Iteration,15,46,0.029223,2.114369
[MO833] Paramount Iteration,9,46,0.029243,2.114414
[MO833] Paramount Iteration,0,47,0.029013,2.121173
[MO833] Paramount Iteration,2,47,0.029275,2.144068
[MO833] Paramount Iteration,4,47,0.029244,2.143654
[MO833] Paramount Iteration,1,47,0.029115,2.129245
[MO833] Paramount Iteration,3,47,0.029236,2.144067
[MO833] Paramount Iteration,6,47,0.029300,2.143692
[MO833] Paramount Iteration,5,47,0.029210,2.143659
[MO833] Paramount Iteration,12,47,0.029262,2.143744
[MO833] Paramount Iteration,10,47,0.029265,2.143685
[MO833] Paramount Iteration,8,47,0.029238,2.143679
[MO833] Paramount Iteration,7,47,0.029255,2.143691
[MO833] Paramount Iteration,13,47,0.029298,2.143746
[MO833] Paramount Iteration,14,47,0.029270,2.143690
[MO833] Paramount Iteration,11,47,0.029297,2.143677
[MO833] Paramount Iteration,9,47,0.029203,2.143680
[MO833] Paramount Iteration,15,47,0.029303,2.143690
[MO833] Paramount Iteration,0,48,0.029212,2.150403
[MO833] Paramount Iteration,2,48,0.029211,2.173286
[MO833] Paramount Iteration,4,48,0.029215,2.172884
[MO833] Paramount Iteration,12,48,0.029170,2.172962
[MO833] Paramount Iteration,1,48,0.029149,2.158476
[MO833] Paramount Iteration,3,48,0.029181,2.173286
[MO833] Paramount Iteration,6,48,0.029193,2.172899
[MO833] Paramount Iteration,5,48,0.029190,2.172893
[MO833] Paramount Iteration,13,48,0.029206,2.172965
[MO833] Paramount Iteration,14,48,0.029151,2.172894
[MO833] Paramount Iteration,10,48,0.029158,2.172896
[MO833] Paramount Iteration,8,48,0.029211,2.172920
[MO833] Paramount Iteration,7,48,0.029150,2.172899
[MO833] Paramount Iteration,15,48,0.029183,2.172894
[MO833] Paramount Iteration,11,48,0.029191,2.172889
[MO833] Paramount Iteration,9,48,0.029166,2.172920
[MO833] Paramount Iteration,0,49,0.029243,2.179668
[MO833] Paramount Iteration,1,49,0.029165,2.187741
[MO833] Paramount Iteration,2,49,0.029285,2.202582
[MO833] Paramount Iteration,4,49,0.029261,2.202164
[MO833] Paramount Iteration,12,49,0.029249,2.202253
[MO833] Paramount Iteration,8,49,0.029245,2.202183
[MO833] Paramount Iteration,3,49,0.029256,2.202584
[MO833] Paramount Iteration,6,49,0.029285,2.202201
[MO833] Paramount Iteration,5,49,0.029267,2.202211
[MO833] Paramount Iteration,13,49,0.029282,2.202256
[MO833] Paramount Iteration,14,49,0.029242,2.202196
[MO833] Paramount Iteration,10,49,0.029246,2.202194
[MO833] Paramount Iteration,9,49,0.029200,2.202184
[MO833] Paramount Iteration,7,49,0.029240,2.202201
[MO833] Paramount Iteration,15,49,0.029283,2.202196
[MO833] Paramount Iteration,11,49,0.029280,2.202186
[MO833] Paramount Iteration,2,50,0.039467,2.242060
[MO833] Paramount Iteration,6,50,0.039436,2.241656
[MO833] Paramount Iteration,4,50,0.039477,2.241660
[MO833] Paramount Iteration,12,50,0.039419,2.241715
[MO833] Paramount Iteration,14,50,0.039358,2.241618
[MO833] Paramount Iteration,10,50,0.039402,2.241648
---------------- Step       50 ----- CPU =      1.6444 (sec) ----------------
TotEng   =    -25330.0317 KinEng   =     21501.0005 Temp     =       299.8229 
PotEng   =    -46831.0321 E_bond   =      2471.7035 E_angle  =     10836.5102 
E_dihed  =      5239.6319 E_impro  =       227.1218 E_vdwl   =     -1993.2873 
E_coul   =    206797.6802 E_long   =   -270410.3926 Press    =       237.6571 
Volume   =    308031.6762 
[MO833] Paramount Iteration,0,50,0.039521,2.219210
[MO833] Paramount Iteration,3,50,0.039437,2.242062
[MO833] Paramount Iteration,7,50,0.039396,2.241661
[MO833] Paramount Iteration,5,50,0.039434,2.241661
[MO833] Paramount Iteration,13,50,0.039452,2.241718
[MO833] Paramount Iteration,15,50,0.039400,2.241618
[MO833] Paramount Iteration,11,50,0.039438,2.241642
[MO833] Paramount Iteration,8,50,0.039501,2.241704
[MO833] Paramount Iteration,1,50,0.039462,2.227268
[MO833] Paramount Iteration,9,50,0.039458,2.241705
[MO833] Paramount Iteration,6,51,0.029655,2.271324
[MO833] Paramount Iteration,7,51,0.029595,2.271327
[MO833] Paramount Iteration,4,51,0.029728,2.271399
[MO833] Paramount Iteration,12,51,0.029666,2.271430
[MO833] Paramount Iteration,14,51,0.029613,2.271291
[MO833] Paramount Iteration,2,51,0.029776,2.271846
[MO833] Paramount Iteration,5,51,0.029699,2.271400
[MO833] Paramount Iteration,13,51,0.029703,2.271430
[MO833] Paramount Iteration,15,51,0.029656,2.271291
[MO833] Paramount Iteration,10,51,0.029713,2.271413
[MO833] Paramount Iteration,8,51,0.029698,2.271419
[MO833] Paramount Iteration,3,51,0.029737,2.271848
[MO833] Paramount Iteration,11,51,0.029751,2.271409
[MO833] Paramount Iteration,9,51,0.029658,2.271425
[MO833] Paramount Iteration,0,51,0.029931,2.249144
[MO833] Paramount Iteration,1,51,0.029872,2.257217
[MO833] Paramount Iteration,0,52,0.029288,2.278449
[MO833] Paramount Iteration,2,52,0.029493,2.301349
[MO833] Paramount Iteration,4,52,0.029527,2.300941
[MO833] Paramount Iteration,12,52,0.029493,2.300976
[MO833] Paramount Iteration,10,52,0.029450,2.300919
[MO833] Paramount Iteration,8,52,0.029488,2.300933
[MO833] Paramount Iteration,1,52,0.029252,2.286522
[MO833] Paramount Iteration,3,52,0.029463,2.301351
[MO833] Paramount Iteration,6,52,0.029645,2.300986
[MO833] Paramount Iteration,5,52,0.029491,2.300942
[MO833] Paramount Iteration,13,52,0.029527,2.300976
[MO833] Paramount Iteration,14,52,0.029574,2.300922
[MO833] Paramount Iteration,11,52,0.029492,2.300920
[MO833] Paramount Iteration,9,52,0.029448,2.300935
[MO833] Paramount Iteration,7,52,0.029606,2.300989
[MO833] Paramount Iteration,15,52,0.029614,2.300922
[MO833] Paramount Iteration,0,53,0.029473,2.307943
[MO833] Paramount Iteration,2,53,0.029478,2.330837
[MO833] Paramount Iteration,4,53,0.029479,2.330434
[MO833] Paramount Iteration,12,53,0.029453,2.330480
[MO833] Paramount Iteration,14,53,0.029437,2.330412
[MO833] Paramount Iteration,10,53,0.029452,2.330427
[MO833] Paramount Iteration,8,53,0.029474,2.330426
[MO833] Paramount Iteration,1,53,0.029404,2.316016
[MO833] Paramount Iteration,3,53,0.029448,2.330839
[MO833] Paramount Iteration,6,53,0.029453,2.330456
[MO833] Paramount Iteration,5,53,0.029446,2.330436
[MO833] Paramount Iteration,13,53,0.029490,2.330482
[MO833] Paramount Iteration,15,53,0.029467,2.330412
[MO833] Paramount Iteration,11,53,0.029486,2.330419
[MO833] Paramount Iteration,9,53,0.029433,2.330430
[MO833] Paramount Iteration,7,53,0.029398,2.330459
[MO833] Paramount Iteration,2,54,0.065110,2.395959
[MO833] Paramount Iteration,6,54,0.065079,2.395555
[MO833] Paramount Iteration,4,54,0.065117,2.395566
[MO833] Paramount Iteration,12,54,0.065067,2.395601
[MO833] Paramount Iteration,14,54,0.065024,2.395501
[MO833] Paramount Iteration,10,54,0.065042,2.395523
[MO833] Paramount Iteration,3,54,0.065080,2.395962
[MO833] Paramount Iteration,7,54,0.065038,2.395557
[MO833] Paramount Iteration,5,54,0.065083,2.395567
[MO833] Paramount Iteration,13,54,0.065102,2.395601
[MO833] Paramount Iteration,15,54,0.065068,2.395503
[MO833] Paramount Iteration,11,54,0.065083,2.395521
[MO833] Paramount Iteration,8,54,0.065147,2.395592
[MO833] Paramount Iteration,9,54,0.065112,2.395599
[MO833] Paramount Iteration,1,54,0.065168,2.381204
[MO833] Paramount Iteration,0,54,0.064939,2.373112
[MO833] Paramount Iteration,0,55,0.029129,2.402497
[MO833] Paramount Iteration,2,55,0.029415,2.425388
[MO833] Paramount Iteration,6,55,0.029426,2.425000
[MO833] Paramount Iteration,4,55,0.029384,2.424968
[MO833] Paramount Iteration,12,55,0.029398,2.425049
[MO833] Paramount Iteration,10,55,0.029417,2.424995
[MO833] Paramount Iteration,8,55,0.029389,2.425004
[MO833] Paramount Iteration,1,55,0.029329,2.410571
[MO833] Paramount Iteration,3,55,0.029382,2.425388
[MO833] Paramount Iteration,7,55,0.029382,2.424999
[MO833] Paramount Iteration,5,55,0.029350,2.424972
[MO833] Paramount Iteration,13,55,0.029437,2.425053
[MO833] Paramount Iteration,14,55,0.029426,2.424992
[MO833] Paramount Iteration,11,55,0.029452,2.424987
[MO833] Paramount Iteration,9,55,0.029355,2.425005
[MO833] Paramount Iteration,15,55,0.029467,2.424992
[MO833] Paramount Iteration,0,56,0.028969,2.431712
[MO833] Paramount Iteration,2,56,0.029224,2.454621
[MO833] Paramount Iteration,4,56,0.029204,2.454191
[MO833] Paramount Iteration,12,56,0.029158,2.454263
[MO833] Paramount Iteration,1,56,0.029191,2.439783
[MO833] Paramount Iteration,3,56,0.029190,2.454621
[MO833] Paramount Iteration,6,56,0.029202,2.454220
[MO833] Paramount Iteration,5,56,0.029174,2.454196
[MO833] Paramount Iteration,13,56,0.029197,2.454265
[MO833] Paramount Iteration,14,56,0.029159,2.454214
[MO833] Paramount Iteration,10,56,0.029180,2.454228
[MO833] Paramount Iteration,8,56,0.029216,2.454239
[MO833] Paramount Iteration,7,56,0.029159,2.454219
[MO833] Paramount Iteration,15,56,0.029200,2.454214
[MO833] Paramount Iteration,11,56,0.029214,2.454220
[MO833] Paramount Iteration,9,56,0.029176,2.454240
[MO833] Paramount Iteration,0,57,0.029203,2.461154
[MO833] Paramount Iteration,2,57,0.029413,2.484041
[MO833] Paramount Iteration,4,57,0.029434,2.483638
[MO833] Paramount Iteration,12,57,0.029370,2.483692
[MO833] Paramount Iteration,10,57,0.029336,2.483619
[MO833] Paramount Iteration,8,57,0.029373,2.483635
[MO833] Paramount Iteration,1,57,0.029423,2.469227
[MO833] Paramount Iteration,3,57,0.029382,2.484043
[MO833] Paramount Iteration,6,57,0.029452,2.483689
[MO833] Paramount Iteration,5,57,0.029399,2.483639
[MO833] Paramount Iteration,13,57,0.029409,2.483694
[MO833] Paramount Iteration,14,57,0.029342,2.483622
[MO833] Paramount Iteration,11,57,0.029372,2.483614
[MO833] Paramount Iteration,9,57,0.029333,2.483639
[MO833] Paramount Iteration,7,57,0.029413,2.483692
[MO833] Paramount Iteration,15,57,0.029384,2.483622
[MO833] Paramount Iteration,0,58,0.029768,2.491148
[MO833] Paramount Iteration,2,58,0.030003,2.514053
[MO833] Paramount Iteration,4,58,0.029985,2.513634
[MO833] Paramount Iteration,8,58,0.030010,2.513663
[MO833] Paramount Iteration,1,58,0.029976,2.499221
[MO833] Paramount Iteration,3,58,0.029973,2.514055
[MO833] Paramount Iteration,6,58,0.029958,2.513663
[MO833] Paramount Iteration,5,58,0.029961,2.513638
[MO833] Paramount Iteration,12,58,0.029964,2.513709
[MO833] Paramount Iteration,14,58,0.029978,2.513652
[MO833] Paramount Iteration,10,58,0.029987,2.513660
[MO833] Paramount Iteration,9,58,0.029957,2.513663
[MO833] Paramount Iteration,7,58,0.029913,2.513662
[MO833] Paramount Iteration,13,58,0.030002,2.513711
[MO833] Paramount Iteration,15,58,0.030010,2.513652
[MO833] Paramount Iteration,11,58,0.030018,2.513651
[MO833] Paramount Iteration,2,59,0.030016,2.544079
[MO833] Paramount Iteration,6,59,0.029983,2.543661
[MO833] Paramount Iteration,12,59,0.029958,2.543724
[MO833] Paramount Iteration,14,59,0.029897,2.543601
[MO833] Paramount Iteration,10,59,0.029941,2.543651
[MO833] Paramount Iteration,3,59,0.029977,2.544082
[MO833] Paramount Iteration,7,59,0.029930,2.543662
[MO833] Paramount Iteration,4,59,0.030044,2.543691
[MO833] Paramount Iteration,13,59,0.029991,2.543720
[MO833] Paramount Iteration,15,59,0.029934,2.543605
[MO833] Paramount Iteration,11,59,0.029975,2.543644
[MO833] Paramount Iteration,8,59,0.030044,2.543726
[MO833] Paramount Iteration,5,59,0.030011,2.543692
[MO833] Paramount Iteration,9,59,0.030008,2.543734
[MO833] Paramount Iteration,0,59,0.030047,2.521426
[MO833] Paramount Iteration,1,59,0.030253,2.529495
[MO833] Paramount Iteration,2,60,0.029720,2.573812
[MO833] Paramount Iteration,6,60,0.029704,2.573382
[MO833] Paramount Iteration,4,60,0.029682,2.573390
[MO833] Paramount Iteration,12,60,0.029670,2.573443
[MO833] Paramount Iteration,14,60,0.029701,2.573356
[MO833] Paramount Iteration,10,60,0.029661,2.573367
[MO833] Paramount Iteration,8,60,0.029680,2.573429
[MO833] Paramount Iteration,3,60,0.029689,2.573814
[MO833] Paramount Iteration,7,60,0.029668,2.573386
[MO833] Paramount Iteration,5,60,0.029647,2.573391
[MO833] Paramount Iteration,13,60,0.029706,2.573445
[MO833] Paramount Iteration,15,60,0.029734,2.573356
[MO833] Paramount Iteration,11,60,0.029704,2.573368
[MO833] Paramount Iteration,9,60,0.029636,2.573433
[MO833] Paramount Iteration,0,60,0.029447,2.550947
[MO833] Paramount Iteration,1,60,0.029508,2.559022
[MO833] Paramount Iteration,0,61,0.029353,2.580531
[MO833] Paramount Iteration,2,61,0.029612,2.603437
[MO833] Paramount Iteration,4,61,0.029608,2.603013
[MO833] Paramount Iteration,12,61,0.029593,2.603088
[MO833] Paramount Iteration,1,61,0.029539,2.588599
[MO833] Paramount Iteration,3,61,0.029579,2.603436
[MO833] Paramount Iteration,6,61,0.029646,2.603044
[MO833] Paramount Iteration,5,61,0.029579,2.603019
[MO833] Paramount Iteration,13,61,0.029629,2.603090
[MO833] Paramount Iteration,14,61,0.029594,2.603017
[MO833] Paramount Iteration,10,61,0.029622,2.603043
[MO833] Paramount Iteration,8,61,0.029605,2.603058
[MO833] Paramount Iteration,7,61,0.029606,2.603045
[MO833] Paramount Iteration,15,61,0.029637,2.603017
[MO833] Paramount Iteration,11,61,0.029656,2.603037
[MO833] Paramount Iteration,9,61,0.029564,2.603059
[MO833] Paramount Iteration,2,62,0.029602,2.633048
[MO833] Paramount Iteration,12,62,0.029544,2.632688
[MO833] Paramount Iteration,14,62,0.029511,2.632594
[MO833] Paramount Iteration,10,62,0.029522,2.632612
[MO833] Paramount Iteration,3,62,0.029575,2.633051
[MO833] Paramount Iteration,6,62,0.029580,2.632638
[MO833] Paramount Iteration,4,62,0.029619,2.632648
[MO833] Paramount Iteration,13,62,0.029586,2.632690
[MO833] Paramount Iteration,15,62,0.029556,2.632595
[MO833] Paramount Iteration,11,62,0.029555,2.632606
[MO833] Paramount Iteration,8,62,0.029597,2.632676
[MO833] Paramount Iteration,7,62,0.029544,2.632640
[MO833] Paramount Iteration,5,62,0.029586,2.632649
[MO833] Paramount Iteration,9,62,0.029558,2.632680
[MO833] Paramount Iteration,1,62,0.029661,2.618285
[MO833] Paramount Iteration,0,62,0.029420,2.610192
[MO833] Paramount Iteration,0,63,0.029290,2.639736
[MO833] Paramount Iteration,2,63,0.029591,2.662652
[MO833] Paramount Iteration,12,63,0.029571,2.662305
[MO833] Paramount Iteration,8,63,0.029558,2.662258
[MO833] Paramount Iteration,1,63,0.029496,2.647810
[MO833] Paramount Iteration,3,63,0.029563,2.662655
[MO833] Paramount Iteration,6,63,0.029609,2.662263
[MO833] Paramount Iteration,4,63,0.029582,2.662243
[MO833] Paramount Iteration,13,63,0.029605,2.662307
[MO833] Paramount Iteration,10,63,0.029593,2.662255
[MO833] Paramount Iteration,9,63,0.029513,2.662259
[MO833] Paramount Iteration,7,63,0.029570,2.662263
[MO833] Paramount Iteration,5,63,0.029558,2.662247
[MO833] Paramount Iteration,14,63,0.029608,2.662258
[MO833] Paramount Iteration,11,63,0.029624,2.662247
[MO833] Paramount Iteration,15,63,0.029638,2.662256
[MO833] Paramount Iteration,0,64,0.065187,2.705163
[MO833] Paramount Iteration,2,64,0.065402,2.728063
[MO833] Paramount Iteration,4,64,0.065408,2.727666
[MO833] Paramount Iteration,12,64,0.065361,2.727714
[MO833] Paramount Iteration,10,64,0.065354,2.727662
[MO833] Paramount Iteration,8,64,0.065401,2.727677
[MO833] Paramount Iteration,1,64,0.065406,2.713236
[MO833] Paramount Iteration,3,64,0.065372,2.728064
[MO833] Paramount Iteration,6,64,0.065407,2.727681
[MO833] Paramount Iteration,5,64,0.065376,2.727667
[MO833] Paramount Iteration,13,64,0.065397,2.727716
[MO833] Paramount Iteration,14,64,0.065355,2.727672
[MO833] Paramount Iteration,11,64,0.065388,2.727654
[MO833] Paramount Iteration,9,64,0.065358,2.727678
[MO833] Paramount Iteration,7,64,0.065368,2.727680
[MO833] Paramount Iteration,15,64,0.065396,2.727672
[MO833] Paramount Iteration,0,65,0.029539,2.734937
[MO833] Paramount Iteration,2,65,0.029763,2.757839
[MO833] Paramount Iteration,4,65,0.029768,2.757448
[MO833] Paramount Iteration,12,65,0.029733,2.757499
[MO833] Paramount Iteration,10,65,0.029718,2.757433
[MO833] Paramount Iteration,8,65,0.029740,2.757451
[MO833] Paramount Iteration,1,65,0.029753,2.743010
[MO833] Paramount Iteration,3,65,0.029735,2.757844
[MO833] Paramount Iteration,6,65,0.029762,2.757454
[MO833] Paramount Iteration,5,65,0.029735,2.757452
[MO833] Paramount Iteration,13,65,0.029770,2.757501
[MO833] Paramount Iteration,14,65,0.029706,2.757440
[MO833] Paramount Iteration,11,65,0.029750,2.757425
[MO833] Paramount Iteration,9,65,0.029697,2.757452
[MO833] Paramount Iteration,7,65,0.029723,2.757454
[MO833] Paramount Iteration,15,65,0.029747,2.757440
[MO833] Paramount Iteration,0,66,0.029415,2.764601
[MO833] Paramount Iteration,2,66,0.029655,2.787506
[MO833] Paramount Iteration,6,66,0.029634,2.787102
[MO833] Paramount Iteration,4,66,0.029623,2.787087
[MO833] Paramount Iteration,12,66,0.029601,2.787151
[MO833] Paramount Iteration,14,66,0.029569,2.787068
[MO833] Paramount Iteration,10,66,0.029582,2.787071
[MO833] Paramount Iteration,8,66,0.029638,2.787106
[MO833] Paramount Iteration,1,66,0.029641,2.772674
[MO833] Paramount Iteration,3,66,0.029624,2.787508
[MO833] Paramount Iteration,7,66,0.029600,2.787107
[MO833] Paramount Iteration,5,66,0.029591,2.787090
[MO833] Paramount Iteration,13,66,0.029636,2.787153
[MO833] Paramount Iteration,15,66,0.029603,2.787068
[MO833] Paramount Iteration,11,66,0.029617,2.787065
[MO833] Paramount Iteration,9,66,0.029595,2.787107
[MO833] Paramount Iteration,2,67,0.029661,2.817180
[MO833] Paramount Iteration,6,67,0.029615,2.816733
[MO833] Paramount Iteration,4,67,0.029676,2.816776
[MO833] Paramount Iteration,12,67,0.029603,2.816803
[MO833] Paramount Iteration,14,67,0.029561,2.816693
[MO833] Paramount Iteration,10,67,0.029610,2.816733
[MO833] Paramount Iteration,3,67,0.029630,2.817182
[MO833] Paramount Iteration,7,67,0.029582,2.816737
[MO833] Paramount Iteration,5,67,0.029645,2.816777
[MO833] Paramount Iteration,13,67,0.029637,2.816803
[MO833] Paramount Iteration,15,67,0.029603,2.816692
[MO833] Paramount Iteration,11,67,0.029647,2.816729
[MO833] Paramount Iteration,8,67,0.029689,2.816813
[MO833] Paramount Iteration,9,67,0.029650,2.816818
[MO833] Paramount Iteration,0,67,0.029653,2.794508
[MO833] Paramount Iteration,1,67,0.029869,2.802578
[MO833] Paramount Iteration,0,68,0.030008,2.824603
[MO833] Paramount Iteration,2,68,0.030325,2.847515
[MO833] Paramount Iteration,4,68,0.030313,2.847103
[MO833] Paramount Iteration,12,68,0.030275,2.847136
[MO833] Paramount Iteration,14,68,0.030333,2.847079
[MO833] Paramount Iteration,10,68,0.030292,2.847076
[MO833] Paramount Iteration,8,68,0.030258,2.847095
[MO833] Paramount Iteration,1,68,0.030112,2.832710
[MO833] Paramount Iteration,3,68,0.030294,2.847517
[MO833] Paramount Iteration,6,68,0.030396,2.847142
[MO833] Paramount Iteration,5,68,0.030280,2.847106
[MO833] Paramount Iteration,13,68,0.030311,2.847135
[MO833] Paramount Iteration,15,68,0.030366,2.847079
[MO833] Paramount Iteration,11,68,0.030327,2.847071
[MO833] Paramount Iteration,9,68,0.030210,2.847098
[MO833] Paramount Iteration,7,68,0.030360,2.847143
[MO833] Paramount Iteration,0,69,0.029672,2.854529
[MO833] Paramount Iteration,2,69,0.029906,2.877430
[MO833] Paramount Iteration,4,69,0.029904,2.877025
[MO833] Paramount Iteration,12,69,0.029877,2.877073
[MO833] Paramount Iteration,14,69,0.029873,2.877014
[MO833] Paramount Iteration,10,69,0.029883,2.877013
[MO833] Paramount Iteration,8,69,0.029922,2.877037
[MO833] Paramount Iteration,1,69,0.029877,2.862603
[MO833] Paramount Iteration,3,69,0.029876,2.877432
[MO833] Paramount Iteration,6,69,0.029912,2.877076
[MO833] Paramount Iteration,5,69,0.029868,2.877026
[MO833] Paramount Iteration,13,69,0.029917,2.877075
[MO833] Paramount Iteration,15,69,0.029918,2.877017
[MO833] Paramount Iteration,11,69,0.029918,2.877007
[MO833] Paramount Iteration,9,69,0.029880,2.877039
[MO833] Paramount Iteration,7,69,0.029854,2.877078
[MO833] Paramount Iteration,2,70,0.029873,2.907316
[MO833] Paramount Iteration,6,70,0.029810,2.906900
[MO833] Paramount Iteration,14,70,0.029779,2.906854
[MO833] Paramount Iteration,10,70,0.029831,2.906901
[MO833] Paramount Iteration,3,70,0.029841,2.907316
[MO833] Paramount Iteration,7,70,0.029776,2.906903
[MO833] Paramount Iteration,4,70,0.029880,2.906920
[MO833] Paramount Iteration,12,70,0.029860,2.906990
[MO833] Paramount Iteration,15,70,0.029820,2.906854
[MO833] Paramount Iteration,11,70,0.029865,2.906893
[MO833] Paramount Iteration,8,70,0.029924,2.906979
[MO833] Paramount Iteration,5,70,0.029834,2.906925
[MO833] Paramount Iteration,13,70,0.029900,2.906992
[MO833] Paramount Iteration,9,70,0.029884,2.906981
[MO833] Paramount Iteration,1,70,0.029911,2.892531
[MO833] Paramount Iteration,0,70,0.029669,2.884458
[MO833] Paramount Iteration,6,71,0.029933,2.936848
[MO833] Paramount Iteration,12,71,0.029863,2.936913
[MO833] Paramount Iteration,14,71,0.029891,2.936804
[MO833] Paramount Iteration,10,71,0.029873,2.936838
[MO833] Paramount Iteration,2,71,0.029961,2.937285
[MO833] Paramount Iteration,7,71,0.029900,2.936851
[MO833] Paramount Iteration,4,71,0.029929,2.936868
[MO833] Paramount Iteration,13,71,0.029900,2.936913
[MO833] Paramount Iteration,15,71,0.029928,2.936802
[MO833] Paramount Iteration,11,71,0.029909,2.936833
[MO833] Paramount Iteration,8,71,0.029910,2.936907
[MO833] Paramount Iteration,3,71,0.029931,2.937288
[MO833] Paramount Iteration,5,71,0.029900,2.936870
[MO833] Paramount Iteration,9,71,0.029871,2.936911
[MO833] Paramount Iteration,1,71,0.029944,2.922512
[MO833] Paramount Iteration,0,71,0.029689,2.914415
[MO833] Paramount Iteration,0,72,0.029518,2.944209
[MO833] Paramount Iteration,2,72,0.029785,2.967083
[MO833] Paramount Iteration,6,72,0.029822,2.966683
[MO833] Paramount Iteration,4,72,0.029783,2.966671
[MO833] Paramount Iteration,12,72,0.029746,2.966717
[MO833] Paramount Iteration,10,72,0.029757,2.966649
[MO833] Paramount Iteration,8,72,0.029772,2.966697
[MO833] Paramount Iteration,1,72,0.029761,2.952284
[MO833] Paramount Iteration,3,72,0.029755,2.967085
[MO833] Paramount Iteration,7,72,0.029788,2.966686
[MO833] Paramount Iteration,5,72,0.029745,2.966672
[MO833] Paramount Iteration,13,72,0.029785,2.966719
[MO833] Paramount Iteration,14,72,0.029798,2.966652
[MO833] Paramount Iteration,11,72,0.029794,2.966643
[MO833] Paramount Iteration,9,72,0.029734,2.966700
[MO833] Paramount Iteration,15,72,0.029832,2.966652
[MO833] Paramount Iteration,0,73,0.066039,3.010508
[MO833] Paramount Iteration,2,73,0.066326,3.033421
[MO833] Paramount Iteration,4,73,0.066313,3.033001
[MO833] Paramount Iteration,8,73,0.066309,3.033031
[MO833] Paramount Iteration,1,73,0.066257,3.018581
[MO833] Paramount Iteration,3,73,0.066294,3.033420
[MO833] Paramount Iteration,6,73,0.066338,3.033033
[MO833] Paramount Iteration,5,73,0.066284,3.033009
[MO833] Paramount Iteration,12,73,0.066308,3.033082
[MO833] Paramount Iteration,10,73,0.066314,3.033017
[MO833] Paramount Iteration,9,73,0.066269,3.033032
[MO833] Paramount Iteration,7,73,0.066303,3.033034
[MO833] Paramount Iteration,13,73,0.066348,3.033084
[MO833] Paramount Iteration,14,73,0.066260,3.033020
[MO833] Paramount Iteration,11,73,0.066347,3.033009
[MO833] Paramount Iteration,15,73,0.066326,3.033020
[MO833] Paramount Iteration,2,74,0.029991,3.063420
[MO833] Paramount Iteration,6,74,0.029945,3.062992
[MO833] Paramount Iteration,4,74,0.029983,3.063003
[MO833] Paramount Iteration,12,74,0.029906,3.063050
[MO833] Paramount Iteration,14,74,0.029852,3.062927
[MO833] Paramount Iteration,10,74,0.029902,3.062975
[MO833] Paramount Iteration,3,74,0.029961,3.063423
[MO833] Paramount Iteration,7,74,0.029907,3.062995
[MO833] Paramount Iteration,5,74,0.029929,3.063004
[MO833] Paramount Iteration,13,74,0.029952,3.063052
[MO833] Paramount Iteration,15,74,0.029892,3.062934
[MO833] Paramount Iteration,11,74,0.029938,3.062969
[MO833] Paramount Iteration,8,74,0.029996,3.063047
[MO833] Paramount Iteration,9,74,0.029955,3.063048
[MO833] Paramount Iteration,1,74,0.030016,3.048619
[MO833] Paramount Iteration,0,74,0.030011,3.040769
[MO833] Paramount Iteration,0,75,0.029541,3.070347
[MO833] Paramount Iteration,2,75,0.029820,3.093253
[MO833] Paramount Iteration,4,75,0.029822,3.092840
[MO833] Paramount Iteration,12,75,0.029773,3.092884
[MO833] Paramount Iteration,14,75,0.029830,3.092824
[MO833] Paramount Iteration,10,75,0.029807,3.092835
[MO833] Paramount Iteration,8,75,0.029791,3.092856
[MO833] Paramount Iteration,1,75,0.029764,3.078420
[MO833] Paramount Iteration,3,75,0.029797,3.093255
[MO833] Paramount Iteration,6,75,0.029863,3.092871
[MO833] Paramount Iteration,5,75,0.029786,3.092841
[MO833] Paramount Iteration,13,75,0.029813,3.092886
[MO833] Paramount Iteration,15,75,0.029875,3.092824
[MO833] Paramount Iteration,11,75,0.029842,3.092827
[MO833] Paramount Iteration,9,75,0.029749,3.092857
[MO833] Paramount Iteration,7,75,0.029823,3.092874
[MO833] Paramount Iteration,0,76,0.029316,3.099910
[MO833] Paramount Iteration,2,76,0.029562,3.122827
[MO833] Paramount Iteration,4,76,0.029551,3.122407
[MO833] Paramount Iteration,12,76,0.029508,3.122450
[MO833] Paramount Iteration,10,76,0.029504,3.122393
[MO833] Paramount Iteration,8,76,0.029534,3.122411
[MO833] Paramount Iteration,1,76,0.029541,3.107983
[MO833] Paramount Iteration,3,76,0.029533,3.122830
[MO833] Paramount Iteration,6,76,0.029544,3.122431
[MO833] Paramount Iteration,5,76,0.029516,3.122408
[MO833] Paramount Iteration,13,76,0.029546,3.122452
[MO833] Paramount Iteration,14,76,0.029507,3.122398
[MO833] Paramount Iteration,11,76,0.029537,3.122386
[MO833] Paramount Iteration,9,76,0.029492,3.122412
[MO833] Paramount Iteration,7,76,0.029501,3.122434
[MO833] Paramount Iteration,15,76,0.029551,3.122398
[MO833] Paramount Iteration,0,77,0.029602,3.129761
[MO833] Paramount Iteration,2,77,0.029826,3.152665
[MO833] Paramount Iteration,4,77,0.029839,3.152261
[MO833] Paramount Iteration,10,77,0.029797,3.152241
[MO833] Paramount Iteration,8,77,0.029852,3.152286
[MO833] Paramount Iteration,1,77,0.029832,3.137835
[MO833] Paramount Iteration,3,77,0.029796,3.152667
[MO833] Paramount Iteration,6,77,0.029824,3.152272
[MO833] Paramount Iteration,5,77,0.029808,3.152265
[MO833] Paramount Iteration,12,77,0.029837,3.152347
[MO833] Paramount Iteration,14,77,0.029776,3.152234
[MO833] Paramount Iteration,11,77,0.029830,3.152233
[MO833] Paramount Iteration,9,77,0.029810,3.152287
[MO833] Paramount Iteration,7,77,0.029783,3.152275
[MO833] Paramount Iteration,13,77,0.029880,3.152353
[MO833] Paramount Iteration,15,77,0.029817,3.152234
[MO833] Paramount Iteration,2,78,0.029767,3.182442
[MO833] Paramount Iteration,6,78,0.029717,3.182009
[MO833] Paramount Iteration,4,78,0.029755,3.182032
[MO833] Paramount Iteration,12,78,0.029699,3.182099
[MO833] Paramount Iteration,14,78,0.029688,3.181987
[MO833] Paramount Iteration,10,78,0.029749,3.182038
[MO833] Paramount Iteration,3,78,0.029736,3.182442
[MO833] Paramount Iteration,7,78,0.029677,3.182012
[MO833] Paramount Iteration,5,78,0.029724,3.182035
[MO833] Paramount Iteration,13,78,0.029736,3.182101
[MO833] Paramount Iteration,15,78,0.029730,3.181987
[MO833] Paramount Iteration,11,78,0.029782,3.182032
[MO833] Paramount Iteration,8,78,0.029804,3.182108
[MO833] Paramount Iteration,9,78,0.029763,3.182109
[MO833] Paramount Iteration,0,78,0.029791,3.159795
[MO833] Paramount Iteration,1,78,0.030014,3.167868
[MO833] Paramount Iteration,0,79,0.030002,3.189878
[MO833] Paramount Iteration,2,79,0.030327,3.212779
[MO833] Paramount Iteration,6,79,0.030358,3.212381
[MO833] Paramount Iteration,4,79,0.030319,3.212366
[MO833] Paramount Iteration,10,79,0.030285,3.212373
[MO833] Paramount Iteration,8,79,0.030273,3.212399
[MO833] Paramount Iteration,1,79,0.030063,3.197951
[MO833] Paramount Iteration,3,79,0.030304,3.212783
[MO833] Paramount Iteration,7,79,0.030318,3.212382
[MO833] Paramount Iteration,5,79,0.030290,3.212372
[MO833] Paramount Iteration,12,79,0.030289,3.212445
[MO833] Paramount Iteration,14,79,0.030331,3.212369
[MO833] Paramount Iteration,11,79,0.030317,3.212365
[MO833] Paramount Iteration,9,79,0.030231,3.212400
[MO833] Paramount Iteration,13,79,0.030328,3.212449
[MO833] Paramount Iteration,15,79,0.030364,3.212369
[MO833] Paramount Iteration,2,80,0.030553,3.243345
[MO833] Paramount Iteration,6,80,0.030515,3.242910
[MO833] Paramount Iteration,4,80,0.030552,3.242934
[MO833] Paramount Iteration,12,80,0.030476,3.242976
[MO833] Paramount Iteration,14,80,0.030430,3.242865
[MO833] Paramount Iteration,10,80,0.030484,3.242905
[MO833] Paramount Iteration,3,80,0.030523,3.243347
[MO833] Paramount Iteration,7,80,0.030478,3.242913
[MO833] Paramount Iteration,5,80,0.030501,3.242935
[MO833] Paramount Iteration,13,80,0.030512,3.242976
[MO833] Paramount Iteration,15,80,0.030473,3.242866
[MO833] Paramount Iteration,11,80,0.030518,3.242900
[MO833] Paramount Iteration,8,80,0.030561,3.242982
[MO833] Paramount Iteration,9,80,0.030521,3.242986
[MO833] Paramount Iteration,1,80,0.030602,3.228573
[MO833] Paramount Iteration,0,80,0.030561,3.220699
[MO833] Paramount Iteration,0,81,0.029746,3.250479
[MO833] Paramount Iteration,2,81,0.030023,3.273378
[MO833] Paramount Iteration,6,81,0.030060,3.272990
[MO833] Paramount Iteration,4,81,0.030023,3.272968
[MO833] Paramount Iteration,8,81,0.030003,3.273009
[MO833] Paramount Iteration,1,81,0.029941,3.258546
[MO833] Paramount Iteration,3,81,0.030000,3.273385
[MO833] Paramount Iteration,7,81,0.030015,3.272988
[MO833] Paramount Iteration,5,81,0.029997,3.272975
[MO833] Paramount Iteration,12,81,0.030015,3.273050
[MO833] Paramount Iteration,14,81,0.030049,3.272976
[MO833] Paramount Iteration,10,81,0.030009,3.272979
[MO833] Paramount Iteration,9,81,0.029961,3.273010
[MO833] Paramount Iteration,13,81,0.030056,3.273053
[MO833] Paramount Iteration,15,81,0.030092,3.272976
[MO833] Paramount Iteration,11,81,0.030043,3.272971
[MO833] Paramount Iteration,0,82,0.029851,3.280590
[MO833] Paramount Iteration,2,82,0.030078,3.303471
[MO833] Paramount Iteration,6,82,0.030043,3.303044
[MO833] Paramount Iteration,4,82,0.030066,3.303050
[MO833] Paramount Iteration,12,82,0.030008,3.303117
[MO833] Paramount Iteration,14,82,0.029968,3.303008
[MO833] Paramount Iteration,10,82,0.030013,3.303042
[MO833] Paramount Iteration,1,82,0.030093,3.288660
[MO833] Paramount Iteration,3,82,0.030049,3.303474
[MO833] Paramount Iteration,7,82,0.030005,3.303047
[MO833] Paramount Iteration,5,82,0.030033,3.303051
[MO833] Paramount Iteration,13,82,0.030047,3.303119
[MO833] Paramount Iteration,15,82,0.030009,3.303008
[MO833] Paramount Iteration,11,82,0.030045,3.303034
[MO833] Paramount Iteration,8,82,0.030099,3.303131
[MO833] Paramount Iteration,9,82,0.030057,3.303132
[MO833] Paramount Iteration,0,83,0.065556,3.346370
[MO833] Paramount Iteration,2,83,0.065804,3.369288
[MO833] Paramount Iteration,4,83,0.065793,3.368858
[MO833] Paramount Iteration,8,83,0.065747,3.368897
[MO833] Paramount Iteration,1,83,0.065764,3.354443
[MO833] Paramount Iteration,3,83,0.065773,3.369289
[MO833] Paramount Iteration,6,83,0.065832,3.368895
[MO833] Paramount Iteration,5,83,0.065763,3.368862
[MO833] Paramount Iteration,12,83,0.065736,3.368935
[MO833] Paramount Iteration,14,83,0.065816,3.368883
[MO833] Paramount Iteration,10,83,0.065783,3.368876
[MO833] Paramount Iteration,9,83,0.065701,3.368898
[MO833] Paramount Iteration,7,83,0.065791,3.368896
[MO833] Paramount Iteration,13,83,0.065793,3.368937
[MO833] Paramount Iteration,15,83,0.065855,3.368883
[MO833] Paramount Iteration,11,83,0.065817,3.368868
[MO833] Paramount Iteration,2,84,0.029651,3.398950
[MO833] Paramount Iteration,6,84,0.029608,3.398523
[MO833] Paramount Iteration,4,84,0.029659,3.398539
[MO833] Paramount Iteration,12,84,0.029595,3.398587
[MO833] Paramount Iteration,14,84,0.029549,3.398496
[MO833] Paramount Iteration,10,84,0.029572,3.398499
[MO833] Paramount Iteration,8,84,0.029653,3.398570
[MO833] Paramount Iteration,3,84,0.029620,3.398952
[MO833] Paramount Iteration,7,84,0.029563,3.398523
[MO833] Paramount Iteration,5,84,0.029623,3.398541
[MO833] Paramount Iteration,13,84,0.029635,3.398589
[MO833] Paramount Iteration,15,84,0.029590,3.398496
[MO833] Paramount Iteration,11,84,0.029609,3.398495
[MO833] Paramount Iteration,9,84,0.029616,3.398575
[MO833] Paramount Iteration,0,84,0.029476,3.376078
[MO833] Paramount Iteration,1,84,0.029686,3.384151
[MO833] Paramount Iteration,2,85,0.029883,3.428846
[MO833] Paramount Iteration,6,85,0.029893,3.428429
[MO833] Paramount Iteration,4,85,0.029874,3.428431
[MO833] Paramount Iteration,12,85,0.029833,3.428479
[MO833] Paramount Iteration,14,85,0.029835,3.428398
[MO833] Paramount Iteration,10,85,0.029868,3.428420
[MO833] Paramount Iteration,8,85,0.029889,3.428478
[MO833] Paramount Iteration,1,85,0.029862,3.414056
[MO833] Paramount Iteration,3,85,0.029852,3.428848
[MO833] Paramount Iteration,7,85,0.029855,3.428431
[MO833] Paramount Iteration,5,85,0.029839,3.428433
[MO833] Paramount Iteration,13,85,0.029870,3.428479
[MO833] Paramount Iteration,15,85,0.029877,3.428398
[MO833] Paramount Iteration,11,85,0.029902,3.428412
[MO833] Paramount Iteration,9,85,0.029852,3.428486
[MO833] Paramount Iteration,0,85,0.029831,3.406147
[MO833] Paramount Iteration,0,86,0.029506,3.435699
[MO833] Paramount Iteration,2,86,0.029739,3.458595
[MO833] Paramount Iteration,6,86,0.029753,3.458199
[MO833] Paramount Iteration,4,86,0.029759,3.458208
[MO833] Paramount Iteration,10,86,0.029704,3.458176
[MO833] Paramount Iteration,8,86,0.029729,3.458232
[MO833] Paramount Iteration,1,86,0.029630,3.443772
[MO833] Paramount Iteration,3,86,0.029711,3.458599
[MO833] Paramount Iteration,7,86,0.029714,3.458200
[MO833] Paramount Iteration,5,86,0.029727,3.458212
[MO833] Paramount Iteration,12,86,0.029729,3.458268
[MO833] Paramount Iteration,14,86,0.029720,3.458178
[MO833] Paramount Iteration,11,86,0.029736,3.458168
[MO833] Paramount Iteration,9,86,0.029687,3.458233
[MO833] Paramount Iteration,13,86,0.029771,3.458270
[MO833] Paramount Iteration,15,86,0.029760,3.458179
[MO833] Paramount Iteration,0,87,0.030006,3.465726
[MO833] Paramount Iteration,1,87,0.029944,3.473796
[MO833] Paramount Iteration,2,87,0.030061,3.488668
[MO833] Paramount Iteration,6,87,0.030056,3.488266
[MO833] Paramount Iteration,4,87,0.029996,3.488218
[MO833] Paramount Iteration,12,87,0.029974,3.488301
[MO833] Paramount Iteration,10,87,0.029996,3.488230
[MO833] Paramount Iteration,8,87,0.030014,3.488265
[MO833] Paramount Iteration,3,87,0.030039,3.488670
[MO833] Paramount Iteration,7,87,0.030016,3.488264
[MO833] Paramount Iteration,5,87,0.029969,3.488225
[MO833] Paramount Iteration,13,87,0.030015,3.488303
[MO833] Paramount Iteration,14,87,0.030021,3.488249
[MO833] Paramount Iteration,11,87,0.030032,3.488222
[MO833] Paramount Iteration,9,87,0.029972,3.488266
[MO833] Paramount Iteration,15,87,0.030052,3.488249
[MO833] Paramount Iteration,0,88,0.030111,3.495856
[MO833] Paramount Iteration,2,88,0.030107,3.518787
[MO833] Paramount Iteration,4,88,0.030120,3.518356
[MO833] Paramount Iteration,8,88,0.030115,3.518398
[MO833] Paramount Iteration,1,88,0.030069,3.503929
[MO833] Paramount Iteration,3,88,0.030074,3.518786
[MO833] Paramount Iteration,6,88,0.030131,3.518405
[MO833] Paramount Iteration,5,88,0.030093,3.518365
[MO833] Paramount Iteration,12,88,0.030060,3.518435
[MO833] Paramount Iteration,14,88,0.030076,3.518378
[MO833] Paramount Iteration,10,88,0.030094,3.518376
[MO833] Paramount Iteration,9,88,0.030075,3.518399
[MO833] Paramount Iteration,7,88,0.030097,3.518408
[MO833] Paramount Iteration,13,88,0.030103,3.518439
[MO833] Paramount Iteration,15,88,0.030107,3.518378
[MO833] Paramount Iteration,11,88,0.030126,3.518368
[MO833] Paramount Iteration,0,89,0.029753,3.525851
[MO833] Paramount Iteration,2,89,0.029984,3.548777
[MO833] Paramount Iteration,6,89,0.029964,3.548381
[MO833] Paramount Iteration,4,89,0.029983,3.548356
[MO833] Paramount Iteration,12,89,0.029939,3.548439
[MO833] Paramount Iteration,14,89,0.029922,3.548361
[MO833] Paramount Iteration,10,89,0.029935,3.548364
[MO833] Paramount Iteration,8,89,0.029975,3.548394
[MO833] Paramount Iteration,1,89,0.029994,3.533946
[MO833] Paramount Iteration,3,89,0.029952,3.548777
[MO833] Paramount Iteration,7,89,0.029924,3.548379
[MO833] Paramount Iteration,5,89,0.029949,3.548357
[MO833] Paramount Iteration,13,89,0.029983,3.548442
[MO833] Paramount Iteration,15,89,0.029963,3.548361
[MO833] Paramount Iteration,11,89,0.029966,3.548356
[MO833] Paramount Iteration,9,89,0.029935,3.548395
[MO833] Paramount Iteration,0,90,0.029789,3.555894
[MO833] Paramount Iteration,4,90,0.030019,3.578391
[MO833] Paramount Iteration,8,90,0.030016,3.578431
[MO833] Paramount Iteration,1,90,0.030014,3.563967
[MO833] Paramount Iteration,2,90,0.030040,3.578825
[MO833] Paramount Iteration,6,90,0.030037,3.578438
[MO833] Paramount Iteration,5,90,0.029988,3.578395
[MO833] Paramount Iteration,12,90,0.029970,3.578471
[MO833] Paramount Iteration,10,90,0.029996,3.578414
[MO833] Paramount Iteration,9,90,0.029974,3.578432
[MO833] Paramount Iteration,3,90,0.030011,3.578827
[MO833] Paramount Iteration,7,90,0.030000,3.578438
[MO833] Paramount Iteration,13,90,0.030010,3.578473
[MO833] Paramount Iteration,14,90,0.030005,3.578423
[MO833] Paramount Iteration,11,90,0.030029,3.578406
[MO833] Paramount Iteration,15,90,0.030043,3.578423
[MO833] Paramount Iteration,0,91,0.065960,3.621876
[MO833] Paramount Iteration,2,91,0.065943,3.644781
[MO833] Paramount Iteration,6,91,0.065926,3.644373
[MO833] Paramount Iteration,4,91,0.065955,3.644359
[MO833] Paramount Iteration,12,91,0.065901,3.644434
[MO833] Paramount Iteration,14,91,0.065866,3.644352
[MO833] Paramount Iteration,10,91,0.065901,3.644367
[MO833] Paramount Iteration,8,91,0.065967,3.644419
[MO833] Paramount Iteration,1,91,0.065884,3.629945
[MO833] Paramount Iteration,3,91,0.065911,3.644781
[MO833] Paramount Iteration,7,91,0.065889,3.644373
[MO833] Paramount Iteration,5,91,0.065925,3.644363
[MO833] Paramount Iteration,13,91,0.065943,3.644437
[MO833] Paramount Iteration,15,91,0.065907,3.644352
[MO833] Paramount Iteration,11,91,0.065935,3.644361
[MO833] Paramount Iteration,9,91,0.065926,3.644420
[MO833] Paramount Iteration,0,92,0.029388,3.651514
[MO833] Paramount Iteration,2,92,0.029655,3.674445
[MO833] Paramount Iteration,4,92,0.029621,3.673999
[MO833] Paramount Iteration,8,92,0.029615,3.674051
[MO833] Paramount Iteration,1,92,0.029609,3.659587
[MO833] Paramount Iteration,3,92,0.029617,3.674447
[MO833] Paramount Iteration,6,92,0.029664,3.674051
[MO833] Paramount Iteration,5,92,0.029588,3.674003
[MO833] Paramount Iteration,12,92,0.029591,3.674080
[MO833] Paramount Iteration,10,92,0.029618,3.674038
[MO833] Paramount Iteration,9,92,0.029574,3.674052
[MO833] Paramount Iteration,7,92,0.029629,3.674057
[MO833] Paramount Iteration,13,92,0.029632,3.674084
[MO833] Paramount Iteration,14,92,0.029621,3.674037
[MO833] Paramount Iteration,11,92,0.029650,3.674030
[MO833] Paramount Iteration,15,92,0.029662,3.674037
[MO833] Paramount Iteration,0,93,0.029554,3.681319
[MO833] Paramount Iteration,2,93,0.029786,3.704243
[MO833] Paramount Iteration,8,93,0.029783,3.703852
[MO833] Paramount Iteration,1,93,0.029785,3.689392
[MO833] Paramount Iteration,3,93,0.029756,3.704245
[MO833] Paramount Iteration,6,93,0.029774,3.703842
[MO833] Paramount Iteration,4,93,0.029804,3.703823
[MO833] Paramount Iteration,12,93,0.029742,3.703879
[MO833] Paramount Iteration,14,93,0.029696,3.703797
[MO833] Paramount Iteration,10,93,0.029707,3.703800
[MO833] Paramount Iteration,9,93,0.029741,3.703853
[MO833] Paramount Iteration,7,93,0.029738,3.703845
[MO833] Paramount Iteration,5,93,0.029770,3.703826
[MO833] Paramount Iteration,13,93,0.029783,3.703882
[MO833] Paramount Iteration,15,93,0.029737,3.703797
[MO833] Paramount Iteration,11,93,0.029742,3.703794
[MO833] Paramount Iteration,0,94,0.029999,3.711339
[MO833] Paramount Iteration,2,94,0.029995,3.734250
[MO833] Paramount Iteration,4,94,0.029970,3.733811
[MO833] Paramount Iteration,12,94,0.029944,3.733886
[MO833] Paramount Iteration,8,94,0.029988,3.733862
[MO833] Paramount Iteration,1,94,0.029956,3.719412
[MO833] Paramount Iteration,3,94,0.029965,3.734252
[MO833] Paramount Iteration,6,94,0.029997,3.733855
[MO833] Paramount Iteration,5,94,0.029939,3.733815
[MO833] Paramount Iteration,13,94,0.029985,3.733888
[MO833] Paramount Iteration,14,94,0.029976,3.733833
[MO833] Paramount Iteration,10,94,0.029977,3.733832
[MO833] Paramount Iteration,9,94,0.029946,3.733863
[MO833] Paramount Iteration,7,94,0.029956,3.733853
[MO833] Paramount Iteration,15,94,0.030015,3.733831
[MO833] Paramount Iteration,11,94,0.030012,3.733825
[MO833] Paramount Iteration,0,95,0.029543,3.740902
[MO833] Paramount Iteration,2,95,0.029572,3.763833
[MO833] Paramount Iteration,4,95,0.029576,3.763401
[MO833] Paramount Iteration,8,95,0.029558,3.763439
[MO833] Paramount Iteration,1,95,0.029460,3.748976
[MO833] Paramount Iteration,3,95,0.029542,3.763835
[MO833] Paramount Iteration,6,95,0.029570,3.763440
[MO833] Paramount Iteration,5,95,0.029541,3.763402
[MO833] Paramount Iteration,12,95,0.029531,3.763477
[MO833] Paramount Iteration,14,95,0.029517,3.763410
[MO833] Paramount Iteration,10,95,0.029527,3.763415
[MO833] Paramount Iteration,9,95,0.029518,3.763440
[MO833] Paramount Iteration,7,95,0.029524,3.763444
[MO833] Paramount Iteration,13,95,0.029572,3.763480
[MO833] Paramount Iteration,15,95,0.029560,3.763410
[MO833] Paramount Iteration,11,95,0.029561,3.763407
[MO833] Paramount Iteration,0,96,0.029695,3.770839
[MO833] Paramount Iteration,2,96,0.029893,3.793735
[MO833] Paramount Iteration,4,96,0.029914,3.793330
[MO833] Paramount Iteration,14,96,0.029819,3.793300
[MO833] Paramount Iteration,10,96,0.029838,3.793307
[MO833] Paramount Iteration,8,96,0.029919,3.793377
[MO833] Paramount Iteration,1,96,0.029917,3.778912
[MO833] Paramount Iteration,3,96,0.029865,3.793738
[MO833] Paramount Iteration,6,96,0.029891,3.793347
[MO833] Paramount Iteration,5,96,0.029882,3.793334
[MO833] Paramount Iteration,12,96,0.029869,3.793411
[MO833] Paramount Iteration,15,96,0.029872,3.793301
[MO833] Paramount Iteration,11,96,0.029870,3.793298
[MO833] Paramount Iteration,9,96,0.029877,3.793378
[MO833] Paramount Iteration,7,96,0.029850,3.793350
[MO833] Paramount Iteration,13,96,0.029912,3.793413
[MO833] Paramount Iteration,0,97,0.029550,3.800637
[MO833] Paramount Iteration,2,97,0.029815,3.823563
[MO833] Paramount Iteration,4,97,0.029783,3.823127
[MO833] Paramount Iteration,8,97,0.029779,3.823175
[MO833] Paramount Iteration,1,97,0.029775,3.808707
[MO833] Paramount Iteration,3,97,0.029786,3.823565
[MO833] Paramount Iteration,6,97,0.029801,3.823168
[MO833] Paramount Iteration,5,97,0.029754,3.823133
[MO833] Paramount Iteration,12,97,0.029742,3.823212
[MO833] Paramount Iteration,10,97,0.029786,3.823149
[MO833] Paramount Iteration,9,97,0.029739,3.823176
[MO833] Paramount Iteration,7,97,0.029759,3.823169
[MO833] Paramount Iteration,13,97,0.029784,3.823214
[MO833] Paramount Iteration,14,97,0.029783,3.823146
[MO833] Paramount Iteration,11,97,0.029832,3.823153
[MO833] Paramount Iteration,15,97,0.029823,3.823146
[MO833] Paramount Iteration,2,98,0.030222,3.853795
[MO833] Paramount Iteration,4,98,0.030224,3.853370
[MO833] Paramount Iteration,12,98,0.030134,3.853408
[MO833] Paramount Iteration,10,98,0.030136,3.853338
[MO833] Paramount Iteration,8,98,0.030190,3.853384
[MO833] Paramount Iteration,0,98,0.030221,3.830877
[MO833] Paramount Iteration,3,98,0.030193,3.853797
[MO833] Paramount Iteration,6,98,0.030222,3.853409
[MO833] Paramount Iteration,5,98,0.030188,3.853371
[MO833] Paramount Iteration,13,98,0.030173,3.853408
[MO833] Paramount Iteration,14,98,0.030139,3.853339
[MO833] Paramount Iteration,11,98,0.030175,3.853336
[MO833] Paramount Iteration,9,98,0.030151,3.853388
[MO833] Paramount Iteration,1,98,0.030164,3.838950
[MO833] Paramount Iteration,7,98,0.030182,3.853410
[MO833] Paramount Iteration,15,98,0.030175,3.853343
[MO833] Paramount Iteration,2,99,0.029667,3.883474
[MO833] Paramount Iteration,6,99,0.029628,3.883053
[MO833] Paramount Iteration,4,99,0.029676,3.883062
[MO833] Paramount Iteration,14,99,0.029600,3.882993
[MO833] Paramount Iteration,10,99,0.029622,3.883014
[MO833] Paramount Iteration,8,99,0.029699,3.883101
[MO833] Paramount Iteration,1,99,0.029635,3.868692
[MO833] Paramount Iteration,3,99,0.029637,3.883476
[MO833] Paramount Iteration,7,99,0.029590,3.883056
[MO833] Paramount Iteration,5,99,0.029642,3.883063
[MO833] Paramount Iteration,12,99,0.029641,3.883106
[MO833] Paramount Iteration,15,99,0.029633,3.882993
[MO833] Paramount Iteration,11,99,0.029658,3.883008
[MO833] Paramount Iteration,9,99,0.029665,3.883109
[MO833] Paramount Iteration,13,99,0.029680,3.883107
[MO833] Paramount Iteration,0,99,0.029698,3.860594
---------------- Step      100 ----- CPU =      3.3618 (sec) ----------------
TotEng   =    -25290.7303 KinEng   =     21591.9084 Temp     =       301.0906 
PotEng   =    -46882.6387 E_bond   =      2567.9807 E_angle  =     10781.9571 
E_dihed  =      5198.7492 E_impro  =       216.7864 E_vdwl   =     -1902.6618 
E_coul   =    206659.5226 E_long   =   -270404.9730 Press    =         6.7406 
Volume   =    308134.2285 
[MO833] Paramount Iteration,8,100,0.076098,3.959221
[MO833] Paramount Iteration,1,100,0.075986,3.944764
[MO833] Paramount Iteration,2,100,0.076145,3.959629
[MO833] Paramount Iteration,6,100,0.076161,3.959227
[MO833] Paramount Iteration,4,100,0.076114,3.959192
[MO833] Paramount Iteration,12,100,0.076060,3.959248
[MO833] Paramount Iteration,14,100,0.076124,3.959180
[MO833] Paramount Iteration,10,100,0.076121,3.959184
[MO833] Paramount Iteration,9,100,0.076059,3.959222
[MO833] Paramount Iteration,3,100,0.076116,3.959631
[MO833] Paramount Iteration,7,100,0.076126,3.959230
[MO833] Paramount Iteration,5,100,0.076080,3.959193
[MO833] Paramount Iteration,13,100,0.076124,3.959250
[MO833] Paramount Iteration,15,100,0.076166,3.959180
[MO833] Paramount Iteration,11,100,0.076152,3.959176
[MO833] Paramount Iteration,0,100,0.076121,3.936932
Loop time of 3.36285 on 16 procs for 100 steps with 32000 atoms

Performance: 5.138 ns/day, 4.671 hours/ns, 29.737 timesteps/s
89.9% CPU use with 16 MPI tasks x 1 OpenMP threads

MPI task timing breakdown:
Section |  min time  |  avg time  |  max time  |%varavg| %total
---------------------------------------------------------------
Pair    | 1.9128     | 1.9992     | 2.0765     |   3.8 | 59.45
Bond    | 0.069893   | 0.081845   | 0.093832   |   2.4 |  2.43
Kspace  | 0.43814    | 0.51663    | 0.59684    |   7.5 | 15.36
Neigh   | 0.36903    | 0.36982    | 0.37076    |   0.1 | 11.00
Comm    | 0.12802    | 0.13701    | 0.14562    |   1.4 |  4.07
Output  | 0.0022008  | 0.0022578  | 0.0024581  |   0.1 |  0.07
Modify  | 0.22815    | 0.23933    | 0.24591    |   0.9 |  7.12
Other   |            | 0.0168     |            |       |  0.50

Nlocal:    2000 ave 2075 max 1940 min
Histogram: 2 1 1 2 5 2 0 2 0 1
Nghost:    11843.2 ave 11929 max 11761 min
Histogram: 3 0 2 1 3 0 2 3 1 1
Neighs:    751756 ave 797548 max 712805 min
Histogram: 2 0 1 4 3 2 2 1 0 1

Total # of neighbors = 12028093
Ave neighs/atom = 375.878
Ave special neighs/atom = 7.43187
Neighbor list builds = 11
Dangerous builds = 0
Total wall time: 0:00:03
[MO833] Beta,0,0.177126
[MO833] Beta,3,0.183999
[MO833] PI avg,3,0.033626,100
[MO833] Beta,8,0.183918
[MO833] PI avg,8,0.033626,100
[MO833] Beta,2,0.184025
[MO833] PI avg,2,0.033626,100
[MO833] Beta,6,0.183914
[MO833] PI avg,6,0.033626,100
[MO833] Beta,4,0.183933
[MO833] PI avg,4,0.033625,100
[MO833] PI avg,0,0.033628,100
[MO833] Beta,1,0.179669
[MO833] PI avg,1,0.033625,100
[MO833] Beta,10,0.183947
[MO833] Total time,3.958430
[MO833] Beta,13,0.183979
[MO833] PI avg,13,0.033625,100
[MO833] Beta,14,0.183948
[MO833] PI avg,10,0.033625,100
[MO833] Beta,9,0.183956
[MO833] PI avg,14,0.033625,100
[MO833] PI avg,9,0.033626,100
[MO833] Beta,5,0.183971
[MO833] Beta,15,0.183980
[MO833] PI avg,15,0.033625,100
[MO833] Beta,11,0.183982
[MO833] PI avg,11,0.033625,100
[MO833] Beta,7,0.183976
[MO833] PI avg,5,0.033626,100
[MO833] PI avg,7,0.033626,100
[MO833] Beta,12,0.184051
[MO833] PI avg,12,0.033626,100
