LAMMPS (3 Mar 2020)
OMP_NUM_THREADS environment is not set. Defaulting to 1 thread. (src/comm.cpp:94)
  using 1 OpenMP thread(s) per MPI task
Reading data file ...
  orthogonal box = (0 0 0) to (3.1 3.1 3.1)
  2 by 2 by 4 MPI processor grid
  reading atoms ...
  3 atoms
  scanning bonds ...
  2 = max bonds/atom
  scanning angles ...
  1 = max angles/atom
  reading bonds ...
  2 bonds
  reading angles ...
  1 angles
Finding 1-2 1-3 1-4 neighbors ...
  special bond factors lj:   0          0          0         
  special bond factors coul: 0          0          0         
  2 = max # of 1-2 neighbors
  1 = max # of 1-3 neighbors
  1 = max # of 1-4 neighbors
  2 = max # of special neighbors
  special bonds CPU = 0.00464153 secs
  read_data CPU = 0.0297925 secs
Replicating atoms ...
  orthogonal box = (0 0 0) to (62 62 62)
  2 by 2 by 4 MPI processor grid
  24000 atoms
  16000 bonds
  8000 angles
Finding 1-2 1-3 1-4 neighbors ...
  special bond factors lj:   0          0          0         
  special bond factors coul: 0          0          0         
  2 = max # of 1-2 neighbors
  1 = max # of 1-3 neighbors
  1 = max # of 1-4 neighbors
  2 = max # of special neighbors
  special bonds CPU = 0.0096271 secs
  replicate CPU = 0.0213861 secs
Displacing atoms ...
Changing box ...
  orthogonal box = (-31 0 0) to (31 62 62)
Changing box ...
  orthogonal box = (-31 -31 0) to (31 31 62)
Changing box ...
  orthogonal box = (-31 -31 -31) to (31 31 31)
Changing box ...
  orthogonal box = (-31 -31 -124) to (31 31 124)
16000 atoms in group hydrogen
8000 atoms in group oxygen
Finding SHAKE clusters ...
  0 = # of size 2 clusters
  0 = # of size 3 clusters
  0 = # of size 4 clusters
  8000 = # of frozen angles
  find clusters CPU = 0.00443363 secs
PPPM initialization ...
  extracting TIP4P info from pair style
  using 12-bit tables for long-range coulomb (src/kspace.cpp:332)
  G vector (1/distance) = 0.230756
  grid = 45 45 120
  stencil order = 5
  estimated absolute RMS force accuracy = 0.00315988
  estimated relative force accuracy = 9.51587e-06
  using double precision KISS FFT
  3d grid and FFT values/proc = 31117 16200
Neighbor list info ...
  update every 1 steps, delay 0 steps, check yes
  max neighbors/atom: 2000, page size: 100000
  master list distance cutoff = 15.3092
  ghost atom cutoff = 15.3092
  binsize = 7.6546, bins = 9 9 33
  1 neighbor lists, perpetual/occasional/extra = 1 0 0
  (1) pair lj/cut/tip4p/long, perpetual
      attributes: half, newton on
      pair build: half/bin/newton
      stencil: half/bin/3d/newton
      bin: standard
Setting up Verlet run ...
  Unit style    : real
  Current step  : 0
  Time step     : 2
Per MPI rank memory allocation (min/avg/max) = 12.52 | 21.19 | 30.55 Mbytes
Step Temp f_TAve Press f_PAve v_xyArea Lz f_st 
       0    450.00938            0    13733.809            0         3844          248            0 
[MO833] Paramount Iteration,0,1,0.092029,0.524934
[MO833] Paramount Iteration,1,1,0.092032,0.525249
[MO833] Paramount Iteration,2,1,0.092041,0.525797
[MO833] Paramount Iteration,4,1,0.092023,0.525426
[MO833] Paramount Iteration,10,1,0.092064,0.525537
[MO833] Paramount Iteration,6,1,0.092047,0.525467
[MO833] Paramount Iteration,8,1,0.092036,0.525140
[MO833] Paramount Iteration,12,1,0.092018,0.525381
[MO833] Paramount Iteration,14,1,0.092056,0.525570
[MO833] Paramount Iteration,3,1,0.092033,0.525787
[MO833] Paramount Iteration,5,1,0.092036,0.525439
[MO833] Paramount Iteration,11,1,0.092055,0.525533
[MO833] Paramount Iteration,7,1,0.092034,0.525468
[MO833] Paramount Iteration,9,1,0.092047,0.525151
[MO833] Paramount Iteration,13,1,0.092029,0.525392
[MO833] Paramount Iteration,15,1,0.092044,0.525558
[MO833] Paramount Iteration,0,2,0.091860,0.617051
[MO833] Paramount Iteration,2,2,0.092057,0.617901
[MO833] Paramount Iteration,4,2,0.092060,0.617518
[MO833] Paramount Iteration,10,2,0.092095,0.617648
[MO833] Paramount Iteration,6,2,0.092065,0.617549
[MO833] Paramount Iteration,8,2,0.092084,0.617258
[MO833] Paramount Iteration,12,2,0.092057,0.617490
[MO833] Paramount Iteration,14,2,0.092057,0.617643
[MO833] Paramount Iteration,1,2,0.092101,0.617368
[MO833] Paramount Iteration,3,2,0.092076,0.617887
[MO833] Paramount Iteration,5,2,0.092028,0.617528
[MO833] Paramount Iteration,11,2,0.092031,0.617643
[MO833] Paramount Iteration,7,2,0.092019,0.617548
[MO833] Paramount Iteration,9,2,0.092034,0.617268
[MO833] Paramount Iteration,13,2,0.092096,0.617500
[MO833] Paramount Iteration,15,2,0.092015,0.617634
[MO833] Paramount Iteration,0,3,0.091805,0.709157
[MO833] Paramount Iteration,3,3,0.092072,0.709985
[MO833] Paramount Iteration,4,3,0.092076,0.709617
[MO833] Paramount Iteration,10,3,0.092057,0.709716
[MO833] Paramount Iteration,6,3,0.092098,0.709661
[MO833] Paramount Iteration,8,3,0.092042,0.709324
[MO833] Paramount Iteration,12,3,0.092014,0.709554
[MO833] Paramount Iteration,14,3,0.092065,0.709718
[MO833] Paramount Iteration,1,3,0.092093,0.709468
[MO833] Paramount Iteration,2,3,0.092051,0.709997
[MO833] Paramount Iteration,5,3,0.092042,0.709626
[MO833] Paramount Iteration,11,3,0.092013,0.709711
[MO833] Paramount Iteration,7,3,0.092055,0.709664
[MO833] Paramount Iteration,9,3,0.092009,0.709333
[MO833] Paramount Iteration,13,3,0.092057,0.709565
[MO833] Paramount Iteration,15,3,0.092022,0.709710
[MO833] Paramount Iteration,0,4,0.092197,0.801693
[MO833] Paramount Iteration,3,4,0.092524,0.802526
[MO833] Paramount Iteration,4,4,0.092565,0.802203
[MO833] Paramount Iteration,10,4,0.092515,0.802240
[MO833] Paramount Iteration,6,4,0.092569,0.802240
[MO833] Paramount Iteration,8,4,0.092515,0.801863
[MO833] Paramount Iteration,12,4,0.092489,0.802119
[MO833] Paramount Iteration,14,4,0.092558,0.802288
[MO833] Paramount Iteration,1,4,0.092527,0.802005
[MO833] Paramount Iteration,2,4,0.092481,0.802536
[MO833] Paramount Iteration,5,4,0.092542,0.802212
[MO833] Paramount Iteration,11,4,0.092471,0.802238
[MO833] Paramount Iteration,7,4,0.092526,0.802243
[MO833] Paramount Iteration,9,4,0.092485,0.801876
[MO833] Paramount Iteration,13,4,0.092549,0.802134
[MO833] Paramount Iteration,15,4,0.092515,0.802281
[MO833] Paramount Iteration,0,5,0.091890,0.893848
[MO833] Paramount Iteration,1,5,0.092150,0.894164
[MO833] Paramount Iteration,2,5,0.092156,0.894737
[MO833] Paramount Iteration,4,5,0.092129,0.894354
[MO833] Paramount Iteration,10,5,0.092222,0.894474
[MO833] Paramount Iteration,6,5,0.092148,0.894397
[MO833] Paramount Iteration,8,5,0.092171,0.894058
[MO833] Paramount Iteration,12,5,0.092148,0.894327
[MO833] Paramount Iteration,14,5,0.092184,0.894484
[MO833] Paramount Iteration,3,5,0.092182,0.894723
[MO833] Paramount Iteration,5,5,0.092098,0.894366
[MO833] Paramount Iteration,11,5,0.092178,0.894470
[MO833] Paramount Iteration,7,5,0.092105,0.894398
[MO833] Paramount Iteration,9,5,0.092130,0.894071
[MO833] Paramount Iteration,13,5,0.092190,0.894337
[MO833] Paramount Iteration,15,5,0.092140,0.894475
[MO833] Paramount Iteration,0,6,0.092169,0.986292
[MO833] Paramount Iteration,2,6,0.092386,0.987158
[MO833] Paramount Iteration,4,6,0.092340,0.986747
[MO833] Paramount Iteration,6,6,0.092395,0.986804
[MO833] Paramount Iteration,8,6,0.092426,0.986508
[MO833] Paramount Iteration,12,6,0.092344,0.986722
[MO833] Paramount Iteration,1,6,0.092436,0.986607
[MO833] Paramount Iteration,3,6,0.092402,0.987145
[MO833] Paramount Iteration,5,6,0.092385,0.986762
[MO833] Paramount Iteration,10,6,0.092410,0.986895
[MO833] Paramount Iteration,7,6,0.092350,0.986805
[MO833] Paramount Iteration,9,6,0.092390,0.986519
[MO833] Paramount Iteration,13,6,0.092388,0.986734
[MO833] Paramount Iteration,14,6,0.092403,0.986897
[MO833] Paramount Iteration,11,6,0.092366,0.986892
[MO833] Paramount Iteration,15,6,0.092360,0.986888
[MO833] Paramount Iteration,0,7,0.173089,1.159640
[MO833] Paramount Iteration,1,7,0.173348,1.159962
[MO833] Paramount Iteration,2,7,0.173312,1.160505
[MO833] Paramount Iteration,4,7,0.173329,1.160135
[MO833] Paramount Iteration,10,7,0.173330,1.160236
[MO833] Paramount Iteration,6,7,0.173364,1.160184
[MO833] Paramount Iteration,8,7,0.173321,1.159852
[MO833] Paramount Iteration,12,7,0.173337,1.160111
[MO833] Paramount Iteration,14,7,0.173344,1.160269
[MO833] Paramount Iteration,3,7,0.173324,1.160489
[MO833] Paramount Iteration,5,7,0.173373,1.160148
[MO833] Paramount Iteration,11,7,0.173286,1.160232
[MO833] Paramount Iteration,7,7,0.173316,1.160183
[MO833] Paramount Iteration,9,7,0.173299,1.159865
[MO833] Paramount Iteration,13,7,0.173378,1.160120
[MO833] Paramount Iteration,15,7,0.173296,1.160255
[MO833] Paramount Iteration,0,8,0.094785,1.254683
[MO833] Paramount Iteration,3,8,0.095012,1.255528
[MO833] Paramount Iteration,4,8,0.095007,1.255196
[MO833] Paramount Iteration,10,8,0.094983,1.255230
[MO833] Paramount Iteration,6,8,0.095039,1.255237
[MO833] Paramount Iteration,8,8,0.094972,1.254847
[MO833] Paramount Iteration,12,8,0.094956,1.255115
[MO833] Paramount Iteration,14,8,0.094998,1.255274
[MO833] Paramount Iteration,1,8,0.095026,1.254995
[MO833] Paramount Iteration,2,8,0.094994,1.255541
[MO833] Paramount Iteration,5,8,0.095047,1.255205
[MO833] Paramount Iteration,11,8,0.094938,1.255226
[MO833] Paramount Iteration,7,8,0.094998,1.255240
[MO833] Paramount Iteration,9,8,0.094936,1.254853
[MO833] Paramount Iteration,13,8,0.094999,1.255127
[MO833] Paramount Iteration,15,8,0.094954,1.255263
[MO833] Paramount Iteration,0,9,0.094990,1.349923
[MO833] Paramount Iteration,1,9,0.095234,1.350239
[MO833] Paramount Iteration,2,9,0.095201,1.350785
[MO833] Paramount Iteration,4,9,0.095176,1.350421
[MO833] Paramount Iteration,10,9,0.095264,1.350515
[MO833] Paramount Iteration,6,9,0.095230,1.350476
[MO833] Paramount Iteration,8,9,0.095293,1.350161
[MO833] Paramount Iteration,12,9,0.095227,1.350394
[MO833] Paramount Iteration,14,9,0.095276,1.350561
[MO833] Paramount Iteration,3,9,0.095226,1.350771
[MO833] Paramount Iteration,5,9,0.095220,1.350433
[MO833] Paramount Iteration,11,9,0.095217,1.350511
[MO833] Paramount Iteration,7,9,0.095184,1.350477
[MO833] Paramount Iteration,9,9,0.095259,1.350171
[MO833] Paramount Iteration,13,9,0.095269,1.350406
[MO833] Paramount Iteration,15,9,0.095230,1.350551
[MO833] Paramount Iteration,0,10,0.095593,1.445763
[MO833] Paramount Iteration,3,10,0.095781,1.446576
[MO833] Paramount Iteration,4,10,0.095786,1.446266
[MO833] Paramount Iteration,10,10,0.095782,1.446307
[MO833] Paramount Iteration,6,10,0.095803,1.446290
[MO833] Paramount Iteration,8,10,0.095792,1.445975
[MO833] Paramount Iteration,14,10,0.095782,1.446353
[MO833] Paramount Iteration,1,10,0.095830,1.446075
[MO833] Paramount Iteration,2,10,0.095763,1.446587
[MO833] Paramount Iteration,5,10,0.095829,1.446277
[MO833] Paramount Iteration,11,10,0.095740,1.446303
[MO833] Paramount Iteration,7,10,0.095760,1.446292
[MO833] Paramount Iteration,9,10,0.095760,1.445984
[MO833] Paramount Iteration,12,10,0.095798,1.446241
[MO833] Paramount Iteration,15,10,0.095740,1.446345
[MO833] Paramount Iteration,13,10,0.095838,1.446250
[MO833] Paramount Iteration,0,11,0.176353,1.622396
[MO833] Paramount Iteration,1,11,0.176629,1.622713
[MO833] Paramount Iteration,2,11,0.176641,1.623272
[MO833] Paramount Iteration,4,11,0.176574,1.622893
[MO833] Paramount Iteration,10,11,0.176678,1.622997
[MO833] Paramount Iteration,6,11,0.176653,1.622952
[MO833] Paramount Iteration,8,11,0.176621,1.622619
[MO833] Paramount Iteration,12,11,0.176570,1.622862
[MO833] Paramount Iteration,14,11,0.176668,1.623032
[MO833] Paramount Iteration,3,11,0.176665,1.623257
[MO833] Paramount Iteration,5,11,0.176617,1.622905
[MO833] Paramount Iteration,11,11,0.176637,1.622993
[MO833] Paramount Iteration,7,11,0.176609,1.622954
[MO833] Paramount Iteration,9,11,0.176589,1.622629
[MO833] Paramount Iteration,13,11,0.176612,1.622871
[MO833] Paramount Iteration,15,11,0.176623,1.623022
[MO833] Paramount Iteration,0,12,0.097000,1.719659
[MO833] Paramount Iteration,2,12,0.097195,1.720506
[MO833] Paramount Iteration,10,12,0.097215,1.720221
[MO833] Paramount Iteration,6,12,0.097224,1.720190
[MO833] Paramount Iteration,8,12,0.097226,1.719869
[MO833] Paramount Iteration,1,12,0.097250,1.719970
[MO833] Paramount Iteration,3,12,0.097210,1.720492
[MO833] Paramount Iteration,4,12,0.097214,1.720159
[MO833] Paramount Iteration,11,12,0.097174,1.720219
[MO833] Paramount Iteration,7,12,0.097176,1.720190
[MO833] Paramount Iteration,9,12,0.097197,1.719879
[MO833] Paramount Iteration,12,12,0.097223,1.720133
[MO833] Paramount Iteration,14,12,0.097233,1.720274
[MO833] Paramount Iteration,5,12,0.097259,1.720173
[MO833] Paramount Iteration,13,12,0.097267,1.720145
[MO833] Paramount Iteration,15,12,0.097189,1.720265
[MO833] Paramount Iteration,0,13,0.097333,1.817017
[MO833] Paramount Iteration,4,13,0.097278,1.817498
[MO833] Paramount Iteration,1,13,0.097305,1.817332
[MO833] Paramount Iteration,2,13,0.097351,1.817893
[MO833] Paramount Iteration,5,13,0.097323,1.817511
[MO833] Paramount Iteration,10,13,0.097375,1.817608
[MO833] Paramount Iteration,6,13,0.097346,1.817555
[MO833] Paramount Iteration,8,13,0.097347,1.817238
[MO833] Paramount Iteration,12,13,0.097287,1.817471
[MO833] Paramount Iteration,14,13,0.097356,1.817637
[MO833] Paramount Iteration,3,13,0.097373,1.817886
[MO833] Paramount Iteration,11,13,0.097335,1.817603
[MO833] Paramount Iteration,7,13,0.097303,1.817558
[MO833] Paramount Iteration,9,13,0.097316,1.817248
[MO833] Paramount Iteration,13,13,0.097334,1.817486
[MO833] Paramount Iteration,15,13,0.097315,1.817629
[MO833] Paramount Iteration,0,14,0.179524,1.996820
[MO833] Paramount Iteration,2,14,0.179756,1.997688
[MO833] Paramount Iteration,4,14,0.179768,1.997325
[MO833] Paramount Iteration,10,14,0.179786,1.997403
[MO833] Paramount Iteration,8,14,0.179784,1.997045
[MO833] Paramount Iteration,1,14,0.179791,1.997134
[MO833] Paramount Iteration,3,14,0.179776,1.997678
[MO833] Paramount Iteration,5,14,0.179815,1.997339
[MO833] Paramount Iteration,11,14,0.179743,1.997399
[MO833] Paramount Iteration,6,14,0.179811,1.997379
[MO833] Paramount Iteration,9,14,0.179752,1.997055
[MO833] Paramount Iteration,12,14,0.179775,1.997299
[MO833] Paramount Iteration,14,14,0.179805,1.997454
[MO833] Paramount Iteration,7,14,0.179767,1.997380
[MO833] Paramount Iteration,13,14,0.179820,1.997313
[MO833] Paramount Iteration,15,14,0.179762,1.997445
[MO833] Paramount Iteration,0,15,0.097357,2.094463
[MO833] Paramount Iteration,4,15,0.097554,2.094942
[MO833] Paramount Iteration,12,15,0.097559,2.094909
[MO833] Paramount Iteration,1,15,0.097638,2.094782
[MO833] Paramount Iteration,2,15,0.097632,2.095360
[MO833] Paramount Iteration,5,15,0.097598,2.094953
[MO833] Paramount Iteration,10,15,0.097675,2.095088
[MO833] Paramount Iteration,6,15,0.097608,2.094998
[MO833] Paramount Iteration,8,15,0.097621,2.094691
[MO833] Paramount Iteration,13,15,0.097605,2.094924
[MO833] Paramount Iteration,14,15,0.097611,2.095075
[MO833] Paramount Iteration,3,15,0.097649,2.095347
[MO833] Paramount Iteration,11,15,0.097632,2.095084
[MO833] Paramount Iteration,7,15,0.097566,2.095001
[MO833] Paramount Iteration,9,15,0.097589,2.094700
[MO833] Paramount Iteration,15,15,0.097565,2.095065
[MO833] Paramount Iteration,0,16,0.096269,2.190978
[MO833] Paramount Iteration,2,16,0.096456,2.191854
[MO833] Paramount Iteration,4,16,0.096471,2.191473
[MO833] Paramount Iteration,1,16,0.096511,2.191299
[MO833] Paramount Iteration,3,16,0.096474,2.191843
[MO833] Paramount Iteration,5,16,0.096516,2.191485
[MO833] Paramount Iteration,10,16,0.096472,2.191573
[MO833] Paramount Iteration,6,16,0.096512,2.191524
[MO833] Paramount Iteration,8,16,0.096496,2.191209
[MO833] Paramount Iteration,12,16,0.096486,2.191447
[MO833] Paramount Iteration,14,16,0.096517,2.191603
[MO833] Paramount Iteration,11,16,0.096426,2.191569
[MO833] Paramount Iteration,7,16,0.096470,2.191529
[MO833] Paramount Iteration,9,16,0.096466,2.191222
[MO833] Paramount Iteration,13,16,0.096528,2.191458
[MO833] Paramount Iteration,15,16,0.096473,2.191594
[MO833] Paramount Iteration,0,17,0.176509,2.367760
[MO833] Paramount Iteration,2,17,0.176730,2.368620
[MO833] Paramount Iteration,4,17,0.176732,2.368258
[MO833] Paramount Iteration,10,17,0.176742,2.368326
[MO833] Paramount Iteration,6,17,0.176768,2.368306
[MO833] Paramount Iteration,8,17,0.176740,2.367973
[MO833] Paramount Iteration,12,17,0.176734,2.368231
[MO833] Paramount Iteration,1,17,0.176766,2.368071
[MO833] Paramount Iteration,3,17,0.176749,2.368610
[MO833] Paramount Iteration,5,17,0.176775,2.368270
[MO833] Paramount Iteration,11,17,0.176697,2.368322
[MO833] Paramount Iteration,7,17,0.176723,2.368307
[MO833] Paramount Iteration,9,17,0.176708,2.367983
[MO833] Paramount Iteration,13,17,0.176776,2.368241
[MO833] Paramount Iteration,14,17,0.176770,2.368383
[MO833] Paramount Iteration,15,17,0.176725,2.368370
[MO833] Paramount Iteration,0,18,0.096849,2.464871
[MO833] Paramount Iteration,2,18,0.097090,2.465750
[MO833] Paramount Iteration,4,18,0.097055,2.465370
[MO833] Paramount Iteration,8,18,0.097098,2.465094
[MO833] Paramount Iteration,1,18,0.097100,2.465182
[MO833] Paramount Iteration,3,18,0.097109,2.465739
[MO833] Paramount Iteration,5,18,0.097103,2.465386
[MO833] Paramount Iteration,10,18,0.097117,2.465453
[MO833] Paramount Iteration,6,18,0.097115,2.465439
[MO833] Paramount Iteration,9,18,0.097066,2.465104
[MO833] Paramount Iteration,12,18,0.097067,2.465346
[MO833] Paramount Iteration,14,18,0.097150,2.465540
[MO833] Paramount Iteration,11,18,0.097073,2.465449
[MO833] Paramount Iteration,7,18,0.097072,2.465440
[MO833] Paramount Iteration,13,18,0.097109,2.465357
[MO833] Paramount Iteration,15,18,0.097107,2.465531
[MO833] Paramount Iteration,0,19,0.096993,2.562123
[MO833] Paramount Iteration,2,19,0.097216,2.563000
[MO833] Paramount Iteration,4,19,0.097159,2.562591
[MO833] Paramount Iteration,12,19,0.097169,2.562567
[MO833] Paramount Iteration,1,19,0.097253,2.562445
[MO833] Paramount Iteration,3,19,0.097234,2.562990
[MO833] Paramount Iteration,5,19,0.097204,2.562605
[MO833] Paramount Iteration,10,19,0.097242,2.562705
[MO833] Paramount Iteration,6,19,0.097209,2.562666
[MO833] Paramount Iteration,8,19,0.097250,2.562368
[MO833] Paramount Iteration,13,19,0.097214,2.562579
[MO833] Paramount Iteration,14,19,0.097187,2.562739
[MO833] Paramount Iteration,11,19,0.097195,2.562697
[MO833] Paramount Iteration,7,19,0.097164,2.562668
[MO833] Paramount Iteration,9,19,0.097216,2.562377
[MO833] Paramount Iteration,15,19,0.097144,2.562730
[MO833] Paramount Iteration,0,20,0.176435,2.738808
[MO833] Paramount Iteration,2,20,0.176648,2.739687
[MO833] Paramount Iteration,1,20,0.176669,2.739121
[MO833] Paramount Iteration,3,20,0.176664,2.739674
[MO833] Paramount Iteration,4,20,0.176665,2.739316
[MO833] Paramount Iteration,10,20,0.176666,2.739379
[MO833] Paramount Iteration,6,20,0.176681,2.739360
[MO833] Paramount Iteration,8,20,0.176642,2.739034
[MO833] Paramount Iteration,12,20,0.176665,2.739285
[MO833] Paramount Iteration,14,20,0.176683,2.739432
[MO833] Paramount Iteration,5,20,0.176706,2.739325
[MO833] Paramount Iteration,11,20,0.176626,2.739376
[MO833] Paramount Iteration,7,20,0.176635,2.739361
[MO833] Paramount Iteration,9,20,0.176610,2.739045
[MO833] Paramount Iteration,13,20,0.176712,2.739299
[MO833] Paramount Iteration,15,20,0.176642,2.739424
[MO833] Paramount Iteration,0,21,0.096964,2.836040
[MO833] Paramount Iteration,1,21,0.097222,2.836353
[MO833] Paramount Iteration,2,21,0.097255,2.836983
[MO833] Paramount Iteration,4,21,0.097184,2.836553
[MO833] Paramount Iteration,10,21,0.097239,2.836630
[MO833] Paramount Iteration,6,21,0.097237,2.836609
[MO833] Paramount Iteration,8,21,0.097213,2.836270
[MO833] Paramount Iteration,12,21,0.097184,2.836517
[MO833] Paramount Iteration,14,21,0.097232,2.836674
[MO833] Paramount Iteration,3,21,0.097275,2.836971
[MO833] Paramount Iteration,5,21,0.097221,2.836559
[MO833] Paramount Iteration,11,21,0.097194,2.836625
[MO833] Paramount Iteration,7,21,0.097178,2.836615
[MO833] Paramount Iteration,9,21,0.097191,2.836282
[MO833] Paramount Iteration,13,21,0.097221,2.836526
[MO833] Paramount Iteration,15,21,0.097187,2.836666
[MO833] Paramount Iteration,0,22,0.097814,2.934112
[MO833] Paramount Iteration,2,22,0.097975,2.934992
[MO833] Paramount Iteration,4,22,0.098036,2.934634
[MO833] Paramount Iteration,8,22,0.098059,2.934352
[MO833] Paramount Iteration,12,22,0.098020,2.934588
[MO833] Paramount Iteration,1,22,0.098064,2.934429
[MO833] Paramount Iteration,3,22,0.097998,2.934986
[MO833] Paramount Iteration,5,22,0.098077,2.934644
[MO833] Paramount Iteration,10,22,0.098059,2.934700
[MO833] Paramount Iteration,6,22,0.098053,2.934676
[MO833] Paramount Iteration,9,22,0.098028,2.934363
[MO833] Paramount Iteration,13,22,0.098063,2.934599
[MO833] Paramount Iteration,14,22,0.098066,2.934751
[MO833] Paramount Iteration,11,22,0.098018,2.934696
[MO833] Paramount Iteration,7,22,0.098010,2.934678
[MO833] Paramount Iteration,15,22,0.098024,2.934742
[MO833] Paramount Iteration,0,23,0.181723,3.116116
[MO833] Paramount Iteration,2,23,0.181969,3.117000
[MO833] Paramount Iteration,4,23,0.181910,3.116592
[MO833] Paramount Iteration,10,23,0.181988,3.116700
[MO833] Paramount Iteration,6,23,0.181942,3.116632
[MO833] Paramount Iteration,8,23,0.181980,3.116355
[MO833] Paramount Iteration,12,23,0.181914,3.116555
[MO833] Paramount Iteration,14,23,0.181933,3.116698
[MO833] Paramount Iteration,1,23,0.181993,3.116431
[MO833] Paramount Iteration,3,23,0.181991,3.116993
[MO833] Paramount Iteration,5,23,0.181952,3.116603
[MO833] Paramount Iteration,11,23,0.181944,3.116697
[MO833] Paramount Iteration,7,23,0.181897,3.116635
[MO833] Paramount Iteration,9,23,0.181946,3.116364
[MO833] Paramount Iteration,13,23,0.181958,3.116565
[MO833] Paramount Iteration,15,23,0.181887,3.116690
[MO833] Paramount Iteration,0,24,0.099994,3.216372
[MO833] Paramount Iteration,2,24,0.100217,3.217257
[MO833] Paramount Iteration,4,24,0.100198,3.216840
[MO833] Paramount Iteration,10,24,0.100243,3.216955
[MO833] Paramount Iteration,6,24,0.100240,3.216889
[MO833] Paramount Iteration,8,24,0.100234,3.216614
[MO833] Paramount Iteration,12,24,0.100210,3.216815
[MO833] Paramount Iteration,14,24,0.100246,3.216957
[MO833] Paramount Iteration,1,24,0.100246,3.216688
[MO833] Paramount Iteration,3,24,0.100233,3.217243
[MO833] Paramount Iteration,5,24,0.100243,3.216853
[MO833] Paramount Iteration,11,24,0.100196,3.216952
[MO833] Paramount Iteration,7,24,0.100204,3.216896
[MO833] Paramount Iteration,9,24,0.100201,3.216624
[MO833] Paramount Iteration,13,24,0.100253,3.216825
[MO833] Paramount Iteration,15,24,0.100201,3.216949
[MO833] Paramount Iteration,0,25,0.099818,3.316447
[MO833] Paramount Iteration,2,25,0.100047,3.317344
[MO833] Paramount Iteration,4,25,0.100053,3.316949
[MO833] Paramount Iteration,1,25,0.100065,3.316763
[MO833] Paramount Iteration,3,25,0.100064,3.317332
[MO833] Paramount Iteration,5,25,0.100100,3.316963
[MO833] Paramount Iteration,10,25,0.100063,3.317029
[MO833] Paramount Iteration,6,25,0.100118,3.317023
[MO833] Paramount Iteration,8,25,0.100047,3.316688
[MO833] Paramount Iteration,12,25,0.100049,3.316922
[MO833] Paramount Iteration,14,25,0.100114,3.317085
[MO833] Paramount Iteration,11,25,0.100017,3.317025
[MO833] Paramount Iteration,7,25,0.100080,3.317030
[MO833] Paramount Iteration,9,25,0.100010,3.316697
[MO833] Paramount Iteration,13,25,0.100096,3.316932
[MO833] Paramount Iteration,15,25,0.100070,3.317077
[MO833] Paramount Iteration,0,26,0.181017,3.497734
[MO833] Paramount Iteration,2,26,0.181241,3.498621
[MO833] Paramount Iteration,4,26,0.181234,3.498239
[MO833] Paramount Iteration,10,26,0.181264,3.498303
[MO833] Paramount Iteration,6,26,0.181260,3.498297
[MO833] Paramount Iteration,8,26,0.181250,3.497966
[MO833] Paramount Iteration,12,26,0.181235,3.498209
[MO833] Paramount Iteration,1,26,0.181276,3.498049
[MO833] Paramount Iteration,3,26,0.181260,3.498611
[MO833] Paramount Iteration,5,26,0.181274,3.498246
[MO833] Paramount Iteration,11,26,0.181222,3.498301
[MO833] Paramount Iteration,7,26,0.181217,3.498300
[MO833] Paramount Iteration,9,26,0.181214,3.497975
[MO833] Paramount Iteration,13,26,0.181278,3.498219
[MO833] Paramount Iteration,14,26,0.181266,3.498363
[MO833] Paramount Iteration,15,26,0.181222,3.498355
[MO833] Paramount Iteration,2,27,0.100239,3.598902
[MO833] Paramount Iteration,4,27,0.100183,3.598475
[MO833] Paramount Iteration,6,27,0.100234,3.598545
[MO833] Paramount Iteration,12,27,0.100181,3.598444
[MO833] Paramount Iteration,0,27,0.100006,3.598018
[MO833] Paramount Iteration,3,27,0.100261,3.598894
[MO833] Paramount Iteration,5,27,0.100226,3.598484
[MO833] Paramount Iteration,10,27,0.100290,3.598608
[MO833] Paramount Iteration,7,27,0.100194,3.598551
[MO833] Paramount Iteration,8,27,0.100268,3.598257
[MO833] Paramount Iteration,13,27,0.100225,3.598453
[MO833] Paramount Iteration,14,27,0.100227,3.598604
[MO833] Paramount Iteration,1,27,0.100271,3.598331
[MO833] Paramount Iteration,11,27,0.100244,3.598604
[MO833] Paramount Iteration,9,27,0.100231,3.598266
[MO833] Paramount Iteration,15,27,0.100179,3.598595
[MO833] Paramount Iteration,0,28,0.100066,3.698190
[MO833] Paramount Iteration,4,28,0.100136,3.698658
[MO833] Paramount Iteration,6,28,0.100165,3.698722
[MO833] Paramount Iteration,12,28,0.100107,3.698616
[MO833] Paramount Iteration,14,28,0.100139,3.698759
[MO833] Paramount Iteration,1,28,0.100163,3.698505
[MO833] Paramount Iteration,2,28,0.100163,3.699103
[MO833] Paramount Iteration,5,28,0.100176,3.698668
[MO833] Paramount Iteration,10,28,0.100133,3.698755
[MO833] Paramount Iteration,7,28,0.100123,3.698726
[MO833] Paramount Iteration,8,28,0.100155,3.698439
[MO833] Paramount Iteration,13,28,0.100162,3.698625
[MO833] Paramount Iteration,15,28,0.100095,3.698752
[MO833] Paramount Iteration,3,28,0.100181,3.699092
[MO833] Paramount Iteration,11,28,0.100086,3.698752
[MO833] Paramount Iteration,9,28,0.100118,3.698449
[MO833] Paramount Iteration,0,29,0.181548,3.879844
[MO833] Paramount Iteration,2,29,0.181610,3.880748
[MO833] Paramount Iteration,4,29,0.181638,3.880343
[MO833] Paramount Iteration,10,29,0.181640,3.880408
[MO833] Paramount Iteration,8,29,0.181620,3.880086
[MO833] Paramount Iteration,1,29,0.181645,3.880159
[MO833] Paramount Iteration,3,29,0.181627,3.880736
[MO833] Paramount Iteration,5,29,0.181682,3.880357
[MO833] Paramount Iteration,11,29,0.181594,3.880404
[MO833] Paramount Iteration,6,29,0.181672,3.880406
[MO833] Paramount Iteration,9,29,0.181581,3.880094
[MO833] Paramount Iteration,12,29,0.181657,3.880325
[MO833] Paramount Iteration,14,29,0.181712,3.880487
[MO833] Paramount Iteration,7,29,0.181629,3.880410
[MO833] Paramount Iteration,13,29,0.181701,3.880335
[MO833] Paramount Iteration,15,29,0.181664,3.880478
[MO833] Paramount Iteration,0,30,0.101303,3.981221
[MO833] Paramount Iteration,2,30,0.101316,3.982108
[MO833] Paramount Iteration,4,30,0.101332,3.981728
[MO833] Paramount Iteration,10,30,0.101367,3.981786
[MO833] Paramount Iteration,6,30,0.101352,3.981777
[MO833] Paramount Iteration,8,30,0.101357,3.981472
[MO833] Paramount Iteration,1,30,0.101384,3.981555
[MO833] Paramount Iteration,3,30,0.101336,3.982095
[MO833] Paramount Iteration,5,30,0.101374,3.981739
[MO833] Paramount Iteration,11,30,0.101322,3.981783
[MO833] Paramount Iteration,7,30,0.101310,3.981784
[MO833] Paramount Iteration,9,30,0.101320,3.981481
[MO833] Paramount Iteration,12,30,0.101331,3.981709
[MO833] Paramount Iteration,13,30,0.101375,3.981719
[MO833] Paramount Iteration,14,30,0.101515,3.982015
[MO833] Paramount Iteration,15,30,0.101468,3.982007
[MO833] Paramount Iteration,0,31,0.100727,4.082077
[MO833] Paramount Iteration,1,31,0.100829,4.082393
[MO833] Paramount Iteration,2,31,0.100830,4.082981
[MO833] Paramount Iteration,4,31,0.100797,4.082580
[MO833] Paramount Iteration,10,31,0.100859,4.082657
[MO833] Paramount Iteration,6,31,0.100873,4.082671
[MO833] Paramount Iteration,8,31,0.100837,4.082330
[MO833] Paramount Iteration,12,31,0.100785,4.082546
[MO833] Paramount Iteration,3,31,0.100850,4.082968
[MO833] Paramount Iteration,5,31,0.100840,4.082590
[MO833] Paramount Iteration,11,31,0.100812,4.082653
[MO833] Paramount Iteration,7,31,0.100829,4.082671
[MO833] Paramount Iteration,9,31,0.100805,4.082342
[MO833] Paramount Iteration,13,31,0.100829,4.082555
[MO833] Paramount Iteration,14,31,0.100700,4.082730
[MO833] Paramount Iteration,15,31,0.100655,4.082722
[MO833] Paramount Iteration,0,32,0.180617,4.262960
[MO833] Paramount Iteration,2,32,0.180845,4.263866
[MO833] Paramount Iteration,4,32,0.180839,4.263469
[MO833] Paramount Iteration,12,32,0.180832,4.263431
[MO833] Paramount Iteration,1,32,0.180881,4.263281
[MO833] Paramount Iteration,3,32,0.180864,4.263855
[MO833] Paramount Iteration,5,32,0.180880,4.263478
[MO833] Paramount Iteration,10,32,0.180874,4.263540
[MO833] Paramount Iteration,6,32,0.180853,4.263535
[MO833] Paramount Iteration,8,32,0.180869,4.263225
[MO833] Paramount Iteration,13,32,0.180875,4.263442
[MO833] Paramount Iteration,14,32,0.180849,4.263593
[MO833] Paramount Iteration,11,32,0.180834,4.263538
[MO833] Paramount Iteration,7,32,0.180807,4.263536
[MO833] Paramount Iteration,9,32,0.180834,4.263234
[MO833] Paramount Iteration,15,32,0.180794,4.263584
[MO833] Paramount Iteration,0,33,0.099871,4.363106
[MO833] Paramount Iteration,2,33,0.100103,4.364009
[MO833] Paramount Iteration,4,33,0.100057,4.363573
[MO833] Paramount Iteration,10,33,0.100125,4.363677
[MO833] Paramount Iteration,6,33,0.100110,4.363656
[MO833] Paramount Iteration,8,33,0.100118,4.363369
[MO833] Paramount Iteration,12,33,0.100078,4.363559
[MO833] Paramount Iteration,14,33,0.100082,4.363686
[MO833] Paramount Iteration,1,33,0.100135,4.363423
[MO833] Paramount Iteration,3,33,0.100125,4.364001
[MO833] Paramount Iteration,5,33,0.100100,4.363586
[MO833] Paramount Iteration,11,33,0.100082,4.363674
[MO833] Paramount Iteration,7,33,0.100068,4.363660
[MO833] Paramount Iteration,9,33,0.100085,4.363379
[MO833] Paramount Iteration,13,33,0.100120,4.363569
[MO833] Paramount Iteration,15,33,0.100039,4.363678
[MO833] Paramount Iteration,2,34,0.099892,4.463942
[MO833] Paramount Iteration,4,34,0.099860,4.463489
[MO833] Paramount Iteration,10,34,0.099921,4.463610
[MO833] Paramount Iteration,6,34,0.099887,4.463551
[MO833] Paramount Iteration,12,34,0.099858,4.463466
[MO833] Paramount Iteration,14,34,0.099908,4.463607
[MO833] Paramount Iteration,3,34,0.099911,4.463930
[MO833] Paramount Iteration,5,34,0.099899,4.463498
[MO833] Paramount Iteration,11,34,0.099878,4.463606
[MO833] Paramount Iteration,7,34,0.099847,4.463557
[MO833] Paramount Iteration,13,34,0.099901,4.463478
[MO833] Paramount Iteration,15,34,0.099864,4.463598
[MO833] Paramount Iteration,0,34,0.099808,4.463161
[MO833] Paramount Iteration,8,34,0.099937,4.463331
[MO833] Paramount Iteration,9,34,0.099910,4.463345
[MO833] Paramount Iteration,1,34,0.100202,4.463635
[MO833] Paramount Iteration,0,35,0.180948,4.644183
[MO833] Paramount Iteration,4,35,0.181112,4.644661
[MO833] Paramount Iteration,6,35,0.181163,4.644731
[MO833] Paramount Iteration,12,35,0.181116,4.644633
[MO833] Paramount Iteration,1,35,0.180815,4.644497
[MO833] Paramount Iteration,2,35,0.181130,4.645110
[MO833] Paramount Iteration,5,35,0.181154,4.644670
[MO833] Paramount Iteration,10,35,0.181162,4.644785
[MO833] Paramount Iteration,7,35,0.181122,4.644737
[MO833] Paramount Iteration,8,35,0.181056,4.644448
[MO833] Paramount Iteration,13,35,0.181158,4.644643
[MO833] Paramount Iteration,14,35,0.181163,4.644781
[MO833] Paramount Iteration,3,35,0.181144,4.645095
[MO833] Paramount Iteration,11,35,0.181118,4.644781
[MO833] Paramount Iteration,9,35,0.181015,4.644458
[MO833] Paramount Iteration,15,35,0.181117,4.644771
[MO833] Paramount Iteration,0,36,0.099991,4.744255
[MO833] Paramount Iteration,3,36,0.100041,4.745163
[MO833] Paramount Iteration,4,36,0.100003,4.744718
[MO833] Paramount Iteration,6,36,0.100052,4.744796
[MO833] Paramount Iteration,12,36,0.100011,4.744694
[MO833] Paramount Iteration,1,36,0.100065,4.744573
[MO833] Paramount Iteration,2,36,0.100021,4.745174
[MO833] Paramount Iteration,5,36,0.100050,4.744730
[MO833] Paramount Iteration,10,36,0.100033,4.744829
[MO833] Paramount Iteration,7,36,0.100006,4.744795
[MO833] Paramount Iteration,8,36,0.100053,4.744524
[MO833] Paramount Iteration,13,36,0.100053,4.744704
[MO833] Paramount Iteration,14,36,0.100057,4.744848
[MO833] Paramount Iteration,11,36,0.099986,4.744825
[MO833] Paramount Iteration,9,36,0.100021,4.744533
[MO833] Paramount Iteration,15,36,0.100013,4.744839
[MO833] Paramount Iteration,2,37,0.099919,4.845136
[MO833] Paramount Iteration,4,37,0.099905,4.844680
[MO833] Paramount Iteration,6,37,0.099950,4.844759
[MO833] Paramount Iteration,12,37,0.099918,4.844662
[MO833] Paramount Iteration,0,37,0.099901,4.844248
[MO833] Paramount Iteration,3,37,0.099947,4.845126
[MO833] Paramount Iteration,5,37,0.099951,4.844693
[MO833] Paramount Iteration,10,37,0.099965,4.844803
[MO833] Paramount Iteration,7,37,0.099912,4.844766
[MO833] Paramount Iteration,8,37,0.099937,4.844486
[MO833] Paramount Iteration,13,37,0.099964,4.844676
[MO833] Paramount Iteration,14,37,0.099954,4.844812
[MO833] Paramount Iteration,11,37,0.099924,4.844800
[MO833] Paramount Iteration,9,37,0.099903,4.844495
[MO833] Paramount Iteration,15,37,0.099909,4.844801
[MO833] Paramount Iteration,1,37,0.100208,4.844790
[MO833] Paramount Iteration,0,38,0.180201,5.024546
[MO833] Paramount Iteration,2,38,0.180320,5.025495
[MO833] Paramount Iteration,4,38,0.180269,5.025004
[MO833] Paramount Iteration,10,38,0.180292,5.025106
[MO833] Paramount Iteration,6,38,0.180310,5.025081
[MO833] Paramount Iteration,8,38,0.180255,5.024767
[MO833] Paramount Iteration,12,38,0.180231,5.024945
[MO833] Paramount Iteration,14,38,0.180279,5.025101
[MO833] Paramount Iteration,1,38,0.180025,5.024857
[MO833] Paramount Iteration,3,38,0.180339,5.025485
[MO833] Paramount Iteration,5,38,0.180308,5.025013
[MO833] Paramount Iteration,11,38,0.180251,5.025102
[MO833] Paramount Iteration,7,38,0.180271,5.025086
[MO833] Paramount Iteration,9,38,0.180219,5.024774
[MO833] Paramount Iteration,13,38,0.180273,5.024955
[MO833] Paramount Iteration,15,38,0.180231,5.025091
[MO833] Paramount Iteration,0,39,0.098851,5.123652
[MO833] Paramount Iteration,4,39,0.099073,5.124129
[MO833] Paramount Iteration,6,39,0.099112,5.124204
[MO833] Paramount Iteration,12,39,0.099105,5.124102
[MO833] Paramount Iteration,1,39,0.099091,5.123968
[MO833] Paramount Iteration,2,39,0.099070,5.124602
[MO833] Paramount Iteration,5,39,0.099116,5.124138
[MO833] Paramount Iteration,10,39,0.099102,5.124224
[MO833] Paramount Iteration,7,39,0.099069,5.124208
[MO833] Paramount Iteration,8,39,0.099131,5.123924
[MO833] Paramount Iteration,13,39,0.099150,5.124112
[MO833] Paramount Iteration,14,39,0.099131,5.124244
[MO833] Paramount Iteration,3,39,0.099089,5.124591
[MO833] Paramount Iteration,11,39,0.099059,5.124220
[MO833] Paramount Iteration,9,39,0.099098,5.123933
[MO833] Paramount Iteration,15,39,0.099087,5.124236
[MO833] Paramount Iteration,0,40,0.098263,5.222192
[MO833] Paramount Iteration,2,40,0.098471,5.223108
[MO833] Paramount Iteration,4,40,0.098497,5.222674
[MO833] Paramount Iteration,10,40,0.098542,5.222775
[MO833] Paramount Iteration,6,40,0.098542,5.222757
[MO833] Paramount Iteration,12,40,0.098499,5.222651
[MO833] Paramount Iteration,14,40,0.098529,5.222793
[MO833] Paramount Iteration,1,40,0.098532,5.222508
[MO833] Paramount Iteration,3,40,0.098491,5.223099
[MO833] Paramount Iteration,5,40,0.098538,5.222684
[MO833] Paramount Iteration,11,40,0.098501,5.222772
[MO833] Paramount Iteration,7,40,0.098500,5.222761
[MO833] Paramount Iteration,8,40,0.098510,5.222469
[MO833] Paramount Iteration,13,40,0.098543,5.222662
[MO833] Paramount Iteration,15,40,0.098481,5.222785
[MO833] Paramount Iteration,9,40,0.098478,5.222479
[MO833] Paramount Iteration,0,41,0.178572,5.401044
[MO833] Paramount Iteration,8,41,0.178809,5.401313
[MO833] Paramount Iteration,1,41,0.178840,5.401358
[MO833] Paramount Iteration,2,41,0.178823,5.401971
[MO833] Paramount Iteration,4,41,0.178820,5.401553
[MO833] Paramount Iteration,10,41,0.178831,5.401619
[MO833] Paramount Iteration,6,41,0.178869,5.401636
[MO833] Paramount Iteration,9,41,0.178779,5.401323
[MO833] Paramount Iteration,12,41,0.178831,5.401529
[MO833] Paramount Iteration,14,41,0.178874,5.401679
[MO833] Paramount Iteration,3,41,0.178841,5.401959
[MO833] Paramount Iteration,5,41,0.178869,5.401566
[MO833] Paramount Iteration,11,41,0.178788,5.401616
[MO833] Paramount Iteration,7,41,0.178826,5.401642
[MO833] Paramount Iteration,13,41,0.178872,5.401541
[MO833] Paramount Iteration,15,41,0.178829,5.401669
[MO833] Paramount Iteration,0,42,0.096553,5.497877
[MO833] Paramount Iteration,2,42,0.096787,5.498799
[MO833] Paramount Iteration,4,42,0.096742,5.498353
[MO833] Paramount Iteration,6,42,0.096764,5.498415
[MO833] Paramount Iteration,12,42,0.096758,5.498337
[MO833] Paramount Iteration,14,42,0.096777,5.498465
[MO833] Paramount Iteration,1,42,0.096833,5.498200
[MO833] Paramount Iteration,3,42,0.096805,5.498786
[MO833] Paramount Iteration,5,42,0.096790,5.498367
[MO833] Paramount Iteration,10,42,0.096822,5.498450
[MO833] Paramount Iteration,7,42,0.096725,5.498421
[MO833] Paramount Iteration,8,42,0.096831,5.498168
[MO833] Paramount Iteration,13,42,0.096799,5.498347
[MO833] Paramount Iteration,15,42,0.096733,5.498455
[MO833] Paramount Iteration,11,42,0.096779,5.498445
[MO833] Paramount Iteration,9,42,0.096797,5.498178
[MO833] Paramount Iteration,2,43,0.098172,5.597012
[MO833] Paramount Iteration,10,43,0.098196,5.596656
[MO833] Paramount Iteration,6,43,0.098240,5.596672
[MO833] Paramount Iteration,3,43,0.098189,5.596999
[MO833] Paramount Iteration,4,43,0.098234,5.596642
[MO833] Paramount Iteration,11,43,0.098152,5.596653
[MO833] Paramount Iteration,7,43,0.098198,5.596677
[MO833] Paramount Iteration,8,43,0.098196,5.596385
[MO833] Paramount Iteration,12,43,0.098183,5.596571
[MO833] Paramount Iteration,14,43,0.098236,5.596712
[MO833] Paramount Iteration,5,43,0.098275,5.596651
[MO833] Paramount Iteration,9,43,0.098170,5.596398
[MO833] Paramount Iteration,13,43,0.098238,5.596593
[MO833] Paramount Iteration,15,43,0.098192,5.596704
[MO833] Paramount Iteration,0,43,0.098220,5.596359
[MO833] Paramount Iteration,1,43,0.098474,5.596680
[MO833] Paramount Iteration,0,44,0.177624,5.774016
[MO833] Paramount Iteration,1,44,0.177600,5.774332
[MO833] Paramount Iteration,2,44,0.177908,5.774961
[MO833] Paramount Iteration,4,44,0.177821,5.774514
[MO833] Paramount Iteration,10,44,0.177934,5.774603
[MO833] Paramount Iteration,8,44,0.177895,5.774308
[MO833] Paramount Iteration,12,44,0.177870,5.774497
[MO833] Paramount Iteration,3,44,0.177927,5.774949
[MO833] Paramount Iteration,5,44,0.177868,5.774528
[MO833] Paramount Iteration,11,44,0.177888,5.774599
[MO833] Paramount Iteration,6,44,0.177937,5.774621
[MO833] Paramount Iteration,9,44,0.177864,5.774317
[MO833] Paramount Iteration,13,44,0.177912,5.774512
[MO833] Paramount Iteration,14,44,0.177943,5.774665
[MO833] Paramount Iteration,7,44,0.177889,5.774621
[MO833] Paramount Iteration,15,44,0.177897,5.774653
[MO833] Paramount Iteration,0,45,0.097181,5.871454
[MO833] Paramount Iteration,2,45,0.097370,5.872377
[MO833] Paramount Iteration,4,45,0.097348,5.871920
[MO833] Paramount Iteration,10,45,0.097390,5.872002
[MO833] Paramount Iteration,6,45,0.097372,5.872012
[MO833] Paramount Iteration,8,45,0.097393,5.871723
[MO833] Paramount Iteration,12,45,0.097354,5.871901
[MO833] Paramount Iteration,1,45,0.097428,5.871768
[MO833] Paramount Iteration,3,45,0.097393,5.872366
[MO833] Paramount Iteration,5,45,0.097392,5.871931
[MO833] Paramount Iteration,11,45,0.097348,5.871998
[MO833] Paramount Iteration,7,45,0.097327,5.872014
[MO833] Paramount Iteration,9,45,0.097335,5.871732
[MO833] Paramount Iteration,13,45,0.097413,5.871931
[MO833] Paramount Iteration,14,45,0.097397,5.872072
[MO833] Paramount Iteration,15,45,0.097350,5.872061
[MO833] Paramount Iteration,0,46,0.096940,5.968656
[MO833] Paramount Iteration,2,46,0.097167,5.969583
[MO833] Paramount Iteration,4,46,0.097142,5.969122
[MO833] Paramount Iteration,6,46,0.097170,5.969193
[MO833] Paramount Iteration,8,46,0.097186,5.968932
[MO833] Paramount Iteration,12,46,0.097151,5.969105
[MO833] Paramount Iteration,14,46,0.097152,5.969232
[MO833] Paramount Iteration,1,46,0.097192,5.968970
[MO833] Paramount Iteration,3,46,0.097188,5.969572
[MO833] Paramount Iteration,5,46,0.097186,5.969134
[MO833] Paramount Iteration,10,46,0.097213,5.969225
[MO833] Paramount Iteration,7,46,0.097124,5.969194
[MO833] Paramount Iteration,9,46,0.097153,5.968942
[MO833] Paramount Iteration,13,46,0.097182,5.969120
[MO833] Paramount Iteration,15,46,0.097102,5.969220
[MO833] Paramount Iteration,11,46,0.097163,5.969216
[MO833] Paramount Iteration,2,47,0.178157,6.147776
[MO833] Paramount Iteration,4,47,0.178148,6.147327
[MO833] Paramount Iteration,12,47,0.178138,6.147296
[MO833] Paramount Iteration,0,47,0.177960,6.146866
[MO833] Paramount Iteration,3,47,0.178175,6.147765
[MO833] Paramount Iteration,5,47,0.178187,6.147334
[MO833] Paramount Iteration,10,47,0.178185,6.147417
[MO833] Paramount Iteration,6,47,0.178218,6.147428
[MO833] Paramount Iteration,8,47,0.178200,6.147157
[MO833] Paramount Iteration,13,47,0.178180,6.147306
[MO833] Paramount Iteration,14,47,0.178192,6.147433
[MO833] Paramount Iteration,1,47,0.178202,6.147182
[MO833] Paramount Iteration,11,47,0.178143,6.147414
[MO833] Paramount Iteration,7,47,0.178174,6.147432
[MO833] Paramount Iteration,9,47,0.178166,6.147167
[MO833] Paramount Iteration,15,47,0.178144,6.147422
[MO833] Paramount Iteration,0,48,0.097064,6.244024
[MO833] Paramount Iteration,1,48,0.097154,6.244344
[MO833] Paramount Iteration,2,48,0.097189,6.244971
[MO833] Paramount Iteration,4,48,0.097142,6.244519
[MO833] Paramount Iteration,10,48,0.097178,6.244607
[MO833] Paramount Iteration,6,48,0.097173,6.244612
[MO833] Paramount Iteration,8,48,0.097134,6.244315
[MO833] Paramount Iteration,12,48,0.097159,6.244501
[MO833] Paramount Iteration,14,48,0.097196,6.244638
[MO833] Paramount Iteration,3,48,0.097144,6.244961
[MO833] Paramount Iteration,5,48,0.097187,6.244532
[MO833] Paramount Iteration,11,48,0.097115,6.244602
[MO833] Paramount Iteration,7,48,0.097130,6.244615
[MO833] Paramount Iteration,9,48,0.097105,6.244329
[MO833] Paramount Iteration,13,48,0.097202,6.244515
[MO833] Paramount Iteration,15,48,0.097150,6.244628
[MO833] Paramount Iteration,0,49,0.097243,6.341335
[MO833] Paramount Iteration,1,49,0.097299,6.341650
[MO833] Paramount Iteration,2,49,0.097316,6.342297
[MO833] Paramount Iteration,4,49,0.097243,6.341820
[MO833] Paramount Iteration,10,49,0.097300,6.341917
[MO833] Paramount Iteration,6,49,0.097330,6.341950
[MO833] Paramount Iteration,8,49,0.097283,6.341622
[MO833] Paramount Iteration,12,49,0.097257,6.341808
[MO833] Paramount Iteration,14,49,0.097299,6.341946
[MO833] Paramount Iteration,3,49,0.097272,6.342286
[MO833] Paramount Iteration,5,49,0.097288,6.341832
[MO833] Paramount Iteration,11,49,0.097258,6.341913
[MO833] Paramount Iteration,7,49,0.097287,6.341953
[MO833] Paramount Iteration,9,49,0.097250,6.341632
[MO833] Paramount Iteration,13,49,0.097297,6.341818
[MO833] Paramount Iteration,15,49,0.097254,6.341937
[MO833] Paramount Iteration,1,50,0.181950,6.523608
[MO833] Paramount Iteration,2,50,0.182006,6.524310
[MO833] Paramount Iteration,3,50,0.182196,6.524530
[MO833] Paramount Iteration,4,50,0.182402,6.524285
[MO833] Paramount Iteration,5,50,0.182595,6.524445
[MO833] Paramount Iteration,6,50,0.182713,6.524677
[MO833] Paramount Iteration,7,50,0.182842,6.524848
[MO833] Paramount Iteration,8,50,0.183116,6.524759
[MO833] Paramount Iteration,9,50,0.183283,6.524957
[MO833] Paramount Iteration,10,50,0.183489,6.525415
[MO833] Paramount Iteration,11,50,0.183619,6.525584
[MO833] Paramount Iteration,12,50,0.183790,6.525649
[MO833] Paramount Iteration,13,50,0.184028,6.525853
[MO833] Paramount Iteration,14,50,0.184204,6.526159
[MO833] Paramount Iteration,15,50,0.184363,6.526352
[MO833] Paramount Iteration,0,50,0.184526,6.525927
[MO833] Paramount Iteration,0,51,0.097022,6.623007
[MO833] Paramount Iteration,2,51,0.099618,6.623942
[MO833] Paramount Iteration,4,51,0.099131,6.623472
[MO833] Paramount Iteration,6,51,0.098866,6.623560
[MO833] Paramount Iteration,12,51,0.097752,6.623454
[MO833] Paramount Iteration,1,51,0.099619,6.623323
[MO833] Paramount Iteration,3,51,0.099372,6.623930
[MO833] Paramount Iteration,5,51,0.099029,6.623484
[MO833] Paramount Iteration,10,51,0.098135,6.623568
[MO833] Paramount Iteration,7,51,0.098698,6.623570
[MO833] Paramount Iteration,8,51,0.098519,6.623301
[MO833] Paramount Iteration,13,51,0.097601,6.623464
[MO833] Paramount Iteration,14,51,0.097417,6.623594
[MO833] Paramount Iteration,11,51,0.097950,6.623565
[MO833] Paramount Iteration,9,51,0.098334,6.623311
[MO833] Paramount Iteration,15,51,0.097206,6.623582
[MO833] Paramount Iteration,0,52,0.098565,6.721664
[MO833] Paramount Iteration,1,52,0.098646,6.721979
[MO833] Paramount Iteration,2,52,0.098670,6.722617
[MO833] Paramount Iteration,4,52,0.098644,6.722170
[MO833] Paramount Iteration,10,52,0.098641,6.722225
[MO833] Paramount Iteration,6,52,0.098664,6.722239
[MO833] Paramount Iteration,8,52,0.098625,6.721948
[MO833] Paramount Iteration,12,52,0.098628,6.722131
[MO833] Paramount Iteration,14,52,0.098668,6.722272
[MO833] Paramount Iteration,3,52,0.098630,6.722606
[MO833] Paramount Iteration,5,52,0.098686,6.722180
[MO833] Paramount Iteration,11,52,0.098597,6.722221
[MO833] Paramount Iteration,7,52,0.098617,6.722241
[MO833] Paramount Iteration,9,52,0.098595,6.721959
[MO833] Paramount Iteration,13,52,0.098669,6.722141
[MO833] Paramount Iteration,15,52,0.098624,6.722263
[MO833] Paramount Iteration,0,53,0.178811,6.900539
[MO833] Paramount Iteration,2,53,0.178859,6.901482
[MO833] Paramount Iteration,1,53,0.178870,6.900856
[MO833] Paramount Iteration,3,53,0.178820,6.901472
[MO833] Paramount Iteration,4,53,0.178823,6.901041
[MO833] Paramount Iteration,10,53,0.178859,6.901093
[MO833] Paramount Iteration,6,53,0.178875,6.901129
[MO833] Paramount Iteration,8,53,0.178868,6.900840
[MO833] Paramount Iteration,12,53,0.178848,6.901028
[MO833] Paramount Iteration,14,53,0.178879,6.901162
[MO833] Paramount Iteration,5,53,0.178868,6.901054
[MO833] Paramount Iteration,11,53,0.178818,6.901089
[MO833] Paramount Iteration,7,53,0.178836,6.901136
[MO833] Paramount Iteration,9,53,0.178825,6.900849
[MO833] Paramount Iteration,13,53,0.178895,6.901043
[MO833] Paramount Iteration,15,53,0.178831,6.901149
[MO833] Paramount Iteration,0,54,0.098869,6.999549
[MO833] Paramount Iteration,8,54,0.098945,6.999808
[MO833] Paramount Iteration,1,54,0.098995,6.999859
[MO833] Paramount Iteration,2,54,0.099041,7.000529
[MO833] Paramount Iteration,4,54,0.098964,7.000062
[MO833] Paramount Iteration,10,54,0.098994,7.000097
[MO833] Paramount Iteration,6,54,0.099036,7.000181
[MO833] Paramount Iteration,9,54,0.098912,6.999817
[MO833] Paramount Iteration,12,54,0.098908,6.999986
[MO833] Paramount Iteration,14,54,0.098994,7.000163
[MO833] Paramount Iteration,3,54,0.098996,7.000516
[MO833] Paramount Iteration,5,54,0.099004,7.000071
[MO833] Paramount Iteration,11,54,0.098952,7.000096
[MO833] Paramount Iteration,7,54,0.098992,7.000184
[MO833] Paramount Iteration,13,54,0.098948,6.999997
[MO833] Paramount Iteration,15,54,0.098952,7.000153
[MO833] Paramount Iteration,0,55,0.098696,7.098338
[MO833] Paramount Iteration,2,55,0.098738,7.099272
[MO833] Paramount Iteration,1,55,0.098782,7.098654
[MO833] Paramount Iteration,3,55,0.098696,7.099262
[MO833] Paramount Iteration,4,55,0.098738,7.098848
[MO833] Paramount Iteration,10,55,0.098780,7.098894
[MO833] Paramount Iteration,6,55,0.098732,7.098922
[MO833] Paramount Iteration,8,55,0.098804,7.098635
[MO833] Paramount Iteration,12,55,0.098779,7.098828
[MO833] Paramount Iteration,14,55,0.098783,7.098957
[MO833] Paramount Iteration,5,55,0.098778,7.098857
[MO833] Paramount Iteration,11,55,0.098735,7.098890
[MO833] Paramount Iteration,7,55,0.098687,7.098923
[MO833] Paramount Iteration,9,55,0.098770,7.098645
[MO833] Paramount Iteration,13,55,0.098825,7.098842
[MO833] Paramount Iteration,15,55,0.098739,7.098947
[MO833] Paramount Iteration,0,56,0.179176,7.277596
[MO833] Paramount Iteration,2,56,0.179254,7.278539
[MO833] Paramount Iteration,1,56,0.179246,7.277907
[MO833] Paramount Iteration,3,56,0.179212,7.278529
[MO833] Paramount Iteration,4,56,0.179196,7.278100
[MO833] Paramount Iteration,10,56,0.179258,7.278165
[MO833] Paramount Iteration,6,56,0.179261,7.278198
[MO833] Paramount Iteration,8,56,0.179229,7.277889
[MO833] Paramount Iteration,12,56,0.179206,7.278088
[MO833] Paramount Iteration,14,56,0.179255,7.278223
[MO833] Paramount Iteration,5,56,0.179243,7.278113
[MO833] Paramount Iteration,11,56,0.179213,7.278161
[MO833] Paramount Iteration,7,56,0.179217,7.278200
[MO833] Paramount Iteration,9,56,0.179197,7.277899
[MO833] Paramount Iteration,13,56,0.179249,7.278098
[MO833] Paramount Iteration,15,56,0.179208,7.278213
[MO833] Paramount Iteration,0,57,0.098644,7.376326
[MO833] Paramount Iteration,2,57,0.098736,7.377285
[MO833] Paramount Iteration,4,57,0.098652,7.376809
[MO833] Paramount Iteration,10,57,0.098723,7.376898
[MO833] Paramount Iteration,6,57,0.098702,7.376915
[MO833] Paramount Iteration,8,57,0.098718,7.376629
[MO833] Paramount Iteration,12,57,0.098656,7.376794
[MO833] Paramount Iteration,1,57,0.098725,7.376642
[MO833] Paramount Iteration,3,57,0.098691,7.377275
[MO833] Paramount Iteration,5,57,0.098696,7.376820
[MO833] Paramount Iteration,11,57,0.098678,7.376894
[MO833] Paramount Iteration,7,57,0.098656,7.376918
[MO833] Paramount Iteration,9,57,0.098684,7.376638
[MO833] Paramount Iteration,13,57,0.098698,7.376805
[MO833] Paramount Iteration,14,57,0.098708,7.376939
[MO833] Paramount Iteration,15,57,0.098664,7.376930
[MO833] Paramount Iteration,0,58,0.099098,7.475522
[MO833] Paramount Iteration,1,58,0.099187,7.475838
[MO833] Paramount Iteration,2,58,0.099196,7.476489
[MO833] Paramount Iteration,4,58,0.099156,7.476019
[MO833] Paramount Iteration,10,58,0.099194,7.476102
[MO833] Paramount Iteration,6,58,0.099203,7.476132
[MO833] Paramount Iteration,8,58,0.099175,7.475827
[MO833] Paramount Iteration,12,58,0.099158,7.476004
[MO833] Paramount Iteration,3,58,0.099154,7.476481
[MO833] Paramount Iteration,5,58,0.099201,7.476032
[MO833] Paramount Iteration,11,58,0.099150,7.476099
[MO833] Paramount Iteration,7,58,0.099158,7.476132
[MO833] Paramount Iteration,9,58,0.099143,7.475838
[MO833] Paramount Iteration,13,58,0.099202,7.476016
[MO833] Paramount Iteration,14,58,0.099203,7.476153
[MO833] Paramount Iteration,15,58,0.099159,7.476144
[MO833] Paramount Iteration,0,59,0.178609,7.654196
[MO833] Paramount Iteration,2,59,0.178665,7.655161
[MO833] Paramount Iteration,4,59,0.178576,7.654656
[MO833] Paramount Iteration,6,59,0.178616,7.654761
[MO833] Paramount Iteration,1,59,0.178663,7.654508
[MO833] Paramount Iteration,3,59,0.178617,7.655148
[MO833] Paramount Iteration,5,59,0.178621,7.654669
[MO833] Paramount Iteration,10,59,0.178657,7.654772
[MO833] Paramount Iteration,7,59,0.178571,7.654762
[MO833] Paramount Iteration,8,59,0.178648,7.654499
[MO833] Paramount Iteration,12,59,0.178598,7.654654
[MO833] Paramount Iteration,14,59,0.178647,7.654809
[MO833] Paramount Iteration,11,59,0.178613,7.654768
[MO833] Paramount Iteration,9,59,0.178614,7.654509
[MO833] Paramount Iteration,13,59,0.178640,7.654663
[MO833] Paramount Iteration,15,59,0.178605,7.654801
[MO833] Paramount Iteration,2,60,0.146880,7.802048
[MO833] Paramount Iteration,5,60,0.146905,7.801586
[MO833] Paramount Iteration,10,60,0.146863,7.801645
[MO833] Paramount Iteration,6,60,0.146903,7.801680
[MO833] Paramount Iteration,13,60,0.146867,7.801538
[MO833] Paramount Iteration,1,60,0.146965,7.801483
[MO833] Paramount Iteration,3,60,0.147024,7.802225
[MO833] Paramount Iteration,4,60,0.147059,7.801772
[MO833] Paramount Iteration,11,60,0.146949,7.801770
[MO833] Paramount Iteration,7,60,0.147043,7.801868
[MO833] Paramount Iteration,9,60,0.146840,7.801407
[MO833] Paramount Iteration,14,60,0.146918,7.801739
[MO833] Paramount Iteration,8,60,0.147010,7.801534
[MO833] Paramount Iteration,12,60,0.147037,7.801740
[MO833] Paramount Iteration,15,60,0.146969,7.801824
[MO833] Paramount Iteration,0,60,0.147321,7.801583
[MO833] Paramount Iteration,0,61,0.098012,7.899652
[MO833] Paramount Iteration,8,61,0.098412,7.899959
[MO833] Paramount Iteration,1,61,0.098345,7.899966
[MO833] Paramount Iteration,2,61,0.098567,7.900633
[MO833] Paramount Iteration,4,61,0.098354,7.900154
[MO833] Paramount Iteration,10,61,0.098524,7.900234
[MO833] Paramount Iteration,6,61,0.098569,7.900271
[MO833] Paramount Iteration,9,61,0.098481,7.899970
[MO833] Paramount Iteration,12,61,0.098375,7.900142
[MO833] Paramount Iteration,14,61,0.098534,7.900294
[MO833] Paramount Iteration,3,61,0.098370,7.900619
[MO833] Paramount Iteration,5,61,0.098560,7.900166
[MO833] Paramount Iteration,11,61,0.098427,7.900230
[MO833] Paramount Iteration,7,61,0.098380,7.900272
[MO833] Paramount Iteration,13,61,0.098597,7.900156
[MO833] Paramount Iteration,15,61,0.098433,7.900280
[MO833] Paramount Iteration,0,62,0.178276,8.078184
[MO833] Paramount Iteration,4,62,0.178437,8.078649
[MO833] Paramount Iteration,6,62,0.178469,8.078756
[MO833] Paramount Iteration,8,62,0.178501,8.078486
[MO833] Paramount Iteration,12,62,0.178416,8.078612
[MO833] Paramount Iteration,14,62,0.178443,8.078743
[MO833] Paramount Iteration,1,62,0.178518,8.078500
[MO833] Paramount Iteration,2,62,0.178531,8.079171
[MO833] Paramount Iteration,5,62,0.178476,8.078659
[MO833] Paramount Iteration,10,62,0.178496,8.078739
[MO833] Paramount Iteration,7,62,0.178428,8.078761
[MO833] Paramount Iteration,9,62,0.178468,8.078496
[MO833] Paramount Iteration,13,62,0.178458,8.078621
[MO833] Paramount Iteration,15,62,0.178401,8.078734
[MO833] Paramount Iteration,3,62,0.178487,8.079160
[MO833] Paramount Iteration,11,62,0.178453,8.078735
[MO833] Paramount Iteration,0,63,0.097624,8.175904
[MO833] Paramount Iteration,1,63,0.097707,8.176214
[MO833] Paramount Iteration,2,63,0.097714,8.176892
[MO833] Paramount Iteration,4,63,0.097706,8.176407
[MO833] Paramount Iteration,10,63,0.097707,8.176457
[MO833] Paramount Iteration,6,63,0.097768,8.176536
[MO833] Paramount Iteration,8,63,0.097685,8.176194
[MO833] Paramount Iteration,12,63,0.097694,8.176358
[MO833] Paramount Iteration,14,63,0.097757,8.176511
[MO833] Paramount Iteration,3,63,0.097673,8.176881
[MO833] Paramount Iteration,5,63,0.097751,8.176419
[MO833] Paramount Iteration,11,63,0.097662,8.176452
[MO833] Paramount Iteration,7,63,0.097725,8.176539
[MO833] Paramount Iteration,9,63,0.097650,8.176203
[MO833] Paramount Iteration,13,63,0.097737,8.176368
[MO833] Paramount Iteration,15,63,0.097713,8.176504
[MO833] Paramount Iteration,0,64,0.096654,8.272636
[MO833] Paramount Iteration,1,64,0.096724,8.272951
[MO833] Paramount Iteration,2,64,0.096708,8.273606
[MO833] Paramount Iteration,4,64,0.096678,8.273134
[MO833] Paramount Iteration,10,64,0.096738,8.273208
[MO833] Paramount Iteration,6,64,0.096705,8.273250
[MO833] Paramount Iteration,8,64,0.096731,8.272950
[MO833] Paramount Iteration,12,64,0.096715,8.273125
[MO833] Paramount Iteration,14,64,0.096741,8.273270
[MO833] Paramount Iteration,3,64,0.096674,8.273602
[MO833] Paramount Iteration,5,64,0.096721,8.273146
[MO833] Paramount Iteration,11,64,0.096696,8.273205
[MO833] Paramount Iteration,7,64,0.096661,8.273251
[MO833] Paramount Iteration,9,64,0.096701,8.272961
[MO833] Paramount Iteration,13,64,0.096760,8.273137
[MO833] Paramount Iteration,15,64,0.096697,8.273261
[MO833] Paramount Iteration,0,65,0.177628,8.450330
[MO833] Paramount Iteration,1,65,0.177685,8.450645
[MO833] Paramount Iteration,2,65,0.177668,8.451314
[MO833] Paramount Iteration,4,65,0.177629,8.450819
[MO833] Paramount Iteration,10,65,0.177687,8.450904
[MO833] Paramount Iteration,6,65,0.177670,8.450933
[MO833] Paramount Iteration,8,65,0.177679,8.450653
[MO833] Paramount Iteration,12,65,0.177629,8.450805
[MO833] Paramount Iteration,14,65,0.177656,8.450937
[MO833] Paramount Iteration,3,65,0.177687,8.451304
[MO833] Paramount Iteration,5,65,0.177674,8.450831
[MO833] Paramount Iteration,11,65,0.177646,8.450901
[MO833] Paramount Iteration,7,65,0.177629,8.450937
[MO833] Paramount Iteration,9,65,0.177654,8.450663
[MO833] Paramount Iteration,13,65,0.177670,8.450814
[MO833] Paramount Iteration,15,65,0.177610,8.450928
[MO833] Paramount Iteration,0,66,0.097412,8.547808
[MO833] Paramount Iteration,1,66,0.097472,8.548125
[MO833] Paramount Iteration,2,66,0.097436,8.548791
[MO833] Paramount Iteration,4,66,0.097433,8.548306
[MO833] Paramount Iteration,10,66,0.097471,8.548387
[MO833] Paramount Iteration,6,66,0.097484,8.548428
[MO833] Paramount Iteration,8,66,0.097428,8.548133
[MO833] Paramount Iteration,12,66,0.097436,8.548293
[MO833] Paramount Iteration,3,66,0.097456,8.548779
[MO833] Paramount Iteration,5,66,0.097478,8.548320
[MO833] Paramount Iteration,11,66,0.097429,8.548384
[MO833] Paramount Iteration,7,66,0.097441,8.548431
[MO833] Paramount Iteration,9,66,0.097470,8.548142
[MO833] Paramount Iteration,13,66,0.097484,8.548308
[MO833] Paramount Iteration,14,66,0.097492,8.548442
[MO833] Paramount Iteration,15,66,0.097447,8.548433
[MO833] Paramount Iteration,0,67,0.098128,8.646003
[MO833] Paramount Iteration,1,67,0.098185,8.646318
[MO833] Paramount Iteration,2,67,0.098153,8.646981
[MO833] Paramount Iteration,4,67,0.098132,8.646501
[MO833] Paramount Iteration,10,67,0.098182,8.646579
[MO833] Paramount Iteration,6,67,0.098177,8.646622
[MO833] Paramount Iteration,8,67,0.098139,8.646328
[MO833] Paramount Iteration,12,67,0.098146,8.646491
[MO833] Paramount Iteration,3,67,0.098171,8.646971
[MO833] Paramount Iteration,5,67,0.098175,8.646513
[MO833] Paramount Iteration,11,67,0.098140,8.646575
[MO833] Paramount Iteration,7,67,0.098131,8.646623
[MO833] Paramount Iteration,9,67,0.098185,8.646338
[MO833] Paramount Iteration,13,67,0.098186,8.646501
[MO833] Paramount Iteration,14,67,0.098186,8.646639
[MO833] Paramount Iteration,15,67,0.098141,8.646630
[MO833] Paramount Iteration,0,68,0.181793,8.827864
[MO833] Paramount Iteration,2,68,0.181811,8.828833
[MO833] Paramount Iteration,4,68,0.181773,8.828331
[MO833] Paramount Iteration,6,68,0.181784,8.828419
[MO833] Paramount Iteration,12,68,0.181767,8.828310
[MO833] Paramount Iteration,14,68,0.181787,8.828438
[MO833] Paramount Iteration,1,68,0.181855,8.828182
[MO833] Paramount Iteration,3,68,0.181828,8.828820
[MO833] Paramount Iteration,5,68,0.181816,8.828341
[MO833] Paramount Iteration,10,68,0.181838,8.828428
[MO833] Paramount Iteration,7,68,0.181739,8.828420
[MO833] Paramount Iteration,8,68,0.181834,8.828217
[MO833] Paramount Iteration,13,68,0.181811,8.828321
[MO833] Paramount Iteration,15,68,0.181742,8.828430
[MO833] Paramount Iteration,11,68,0.181796,8.828426
[MO833] Paramount Iteration,9,68,0.181879,8.828228
[MO833] Paramount Iteration,2,69,0.099871,8.928744
[MO833] Paramount Iteration,4,69,0.099923,8.928307
[MO833] Paramount Iteration,10,69,0.099890,8.928331
[MO833] Paramount Iteration,6,69,0.099945,8.928378
[MO833] Paramount Iteration,8,69,0.099851,8.928130
[MO833] Paramount Iteration,12,69,0.099907,8.928272
[MO833] Paramount Iteration,14,69,0.099948,8.928395
[MO833] Paramount Iteration,3,69,0.099893,8.928735
[MO833] Paramount Iteration,5,69,0.099967,8.928317
[MO833] Paramount Iteration,11,69,0.099842,8.928327
[MO833] Paramount Iteration,7,69,0.099900,8.928379
[MO833] Paramount Iteration,9,69,0.099900,8.928141
[MO833] Paramount Iteration,13,69,0.099951,8.928282
[MO833] Paramount Iteration,15,69,0.099900,8.928382
[MO833] Paramount Iteration,0,69,0.100097,8.928058
[MO833] Paramount Iteration,1,69,0.100188,8.928377
[MO833] Paramount Iteration,0,70,0.140007,9.068154
[MO833] Paramount Iteration,3,70,0.140384,9.069136
[MO833] Paramount Iteration,4,70,0.140262,9.068618
[MO833] Paramount Iteration,11,70,0.140316,9.068691
[MO833] Paramount Iteration,7,70,0.140340,9.068745
[MO833] Paramount Iteration,8,70,0.140255,9.068444
[MO833] Paramount Iteration,12,70,0.140258,9.068581
[MO833] Paramount Iteration,15,70,0.140263,9.068701
[MO833] Paramount Iteration,5,70,0.140447,9.068772
[MO833] Paramount Iteration,6,70,0.140447,9.068881
[MO833] Paramount Iteration,9,70,0.140443,9.068598
[MO833] Paramount Iteration,13,70,0.140445,9.068735
[MO833] Paramount Iteration,14,70,0.140447,9.068849
[MO833] Paramount Iteration,1,70,0.140255,9.068641
[MO833] Paramount Iteration,2,70,0.140539,9.069321
[MO833] Paramount Iteration,10,70,0.140498,9.068836
[MO833] Paramount Iteration,0,71,0.181707,9.250148
[MO833] Paramount Iteration,1,71,0.181767,9.250464
[MO833] Paramount Iteration,2,71,0.181799,9.251142
[MO833] Paramount Iteration,4,71,0.181976,9.250642
[MO833] Paramount Iteration,10,71,0.181878,9.250727
[MO833] Paramount Iteration,6,71,0.181853,9.250775
[MO833] Paramount Iteration,8,71,0.181987,9.250483
[MO833] Paramount Iteration,12,71,0.182005,9.250631
[MO833] Paramount Iteration,14,71,0.181921,9.250784
[MO833] Paramount Iteration,3,71,0.181979,9.251131
[MO833] Paramount Iteration,5,71,0.181872,9.250656
[MO833] Paramount Iteration,11,71,0.181977,9.250722
[MO833] Paramount Iteration,7,71,0.181984,9.250778
[MO833] Paramount Iteration,9,71,0.181890,9.250503
[MO833] Paramount Iteration,13,71,0.181898,9.250645
[MO833] Paramount Iteration,15,71,0.182022,9.250776
[MO833] Paramount Iteration,0,72,0.099992,9.350411
[MO833] Paramount Iteration,1,72,0.100253,9.350726
[MO833] Paramount Iteration,2,72,0.100223,9.351405
[MO833] Paramount Iteration,4,72,0.100217,9.350917
[MO833] Paramount Iteration,10,72,0.100250,9.350986
[MO833] Paramount Iteration,6,72,0.100246,9.351035
[MO833] Paramount Iteration,8,72,0.100212,9.350758
[MO833] Paramount Iteration,12,72,0.100225,9.350908
[MO833] Paramount Iteration,14,72,0.100246,9.351043
[MO833] Paramount Iteration,3,72,0.100247,9.351399
[MO833] Paramount Iteration,5,72,0.100261,9.350929
[MO833] Paramount Iteration,11,72,0.100207,9.350981
[MO833] Paramount Iteration,7,72,0.100203,9.351039
[MO833] Paramount Iteration,9,72,0.100256,9.350769
[MO833] Paramount Iteration,13,72,0.100270,9.350922
[MO833] Paramount Iteration,15,72,0.100205,9.351035
[MO833] Paramount Iteration,0,73,0.099512,9.450202
[MO833] Paramount Iteration,2,73,0.099733,9.451180
[MO833] Paramount Iteration,4,73,0.099685,9.450663
[MO833] Paramount Iteration,6,73,0.099728,9.450778
[MO833] Paramount Iteration,12,73,0.099680,9.450642
[MO833] Paramount Iteration,1,73,0.099783,9.450517
[MO833] Paramount Iteration,3,73,0.099756,9.451171
[MO833] Paramount Iteration,5,73,0.099722,9.450669
[MO833] Paramount Iteration,10,73,0.099760,9.450756
[MO833] Paramount Iteration,7,73,0.099682,9.450779
[MO833] Paramount Iteration,8,73,0.099708,9.450540
[MO833] Paramount Iteration,13,73,0.099723,9.450652
[MO833] Paramount Iteration,14,73,0.099724,9.450780
[MO833] Paramount Iteration,11,73,0.099712,9.450750
[MO833] Paramount Iteration,9,73,0.099752,9.450549
[MO833] Paramount Iteration,15,73,0.099678,9.450771
[MO833] Paramount Iteration,0,74,0.181711,9.632005
[MO833] Paramount Iteration,2,74,0.181800,9.632990
[MO833] Paramount Iteration,1,74,0.181793,9.632320
[MO833] Paramount Iteration,3,74,0.181756,9.632979
[MO833] Paramount Iteration,4,74,0.181791,9.632505
[MO833] Paramount Iteration,10,74,0.181795,9.632559
[MO833] Paramount Iteration,6,74,0.181782,9.632617
[MO833] Paramount Iteration,8,74,0.181748,9.632342
[MO833] Paramount Iteration,12,74,0.181809,9.632502
[MO833] Paramount Iteration,14,74,0.181808,9.632600
[MO833] Paramount Iteration,5,74,0.181836,9.632517
[MO833] Paramount Iteration,11,74,0.181751,9.632555
[MO833] Paramount Iteration,7,74,0.181816,9.632621
[MO833] Paramount Iteration,9,74,0.181792,9.632353
[MO833] Paramount Iteration,13,74,0.181856,9.632516
[MO833] Paramount Iteration,15,74,0.181762,9.632589
[MO833] Paramount Iteration,0,75,0.100431,9.732525
[MO833] Paramount Iteration,2,75,0.100521,9.733517
[MO833] Paramount Iteration,4,75,0.100417,9.732982
[MO833] Paramount Iteration,6,75,0.100462,9.733098
[MO833] Paramount Iteration,12,75,0.100417,9.732971
[MO833] Paramount Iteration,1,75,0.100508,9.732838
[MO833] Paramount Iteration,3,75,0.100478,9.733505
[MO833] Paramount Iteration,5,75,0.100461,9.732994
[MO833] Paramount Iteration,10,75,0.100525,9.733092
[MO833] Paramount Iteration,7,75,0.100398,9.733100
[MO833] Paramount Iteration,8,75,0.100455,9.732851
[MO833] Paramount Iteration,13,75,0.100459,9.732981
[MO833] Paramount Iteration,14,75,0.100495,9.733107
[MO833] Paramount Iteration,11,75,0.100485,9.733089
[MO833] Paramount Iteration,9,75,0.100499,9.732862
[MO833] Paramount Iteration,15,75,0.100443,9.733093
[MO833] Paramount Iteration,0,76,0.099466,9.832069
[MO833] Paramount Iteration,4,76,0.099477,9.832515
[MO833] Paramount Iteration,12,76,0.099485,9.832506
[MO833] Paramount Iteration,1,76,0.099535,9.832385
[MO833] Paramount Iteration,2,76,0.099536,9.833060
[MO833] Paramount Iteration,5,76,0.099523,9.832530
[MO833] Paramount Iteration,10,76,0.099530,9.832635
[MO833] Paramount Iteration,6,76,0.099535,9.832651
[MO833] Paramount Iteration,8,76,0.099490,9.832398
[MO833] Paramount Iteration,13,76,0.099531,9.832520
[MO833] Paramount Iteration,14,76,0.099537,9.832653
[MO833] Paramount Iteration,3,76,0.099494,9.833049
[MO833] Paramount Iteration,11,76,0.099488,9.832631
[MO833] Paramount Iteration,7,76,0.099494,9.832657
[MO833] Paramount Iteration,9,76,0.099536,9.832410
[MO833] Paramount Iteration,15,76,0.099491,9.832644
[MO833] Paramount Iteration,0,77,0.181457,10.013621
[MO833] Paramount Iteration,2,77,0.181546,10.014614
[MO833] Paramount Iteration,4,77,0.181509,10.014083
[MO833] Paramount Iteration,6,77,0.181528,10.014193
[MO833] Paramount Iteration,1,77,0.181542,10.013936
[MO833] Paramount Iteration,3,77,0.181508,10.014606
[MO833] Paramount Iteration,5,77,0.181553,10.014095
[MO833] Paramount Iteration,10,77,0.181536,10.014181
[MO833] Paramount Iteration,7,77,0.181464,10.014194
[MO833] Paramount Iteration,8,77,0.181509,10.013964
[MO833] Paramount Iteration,12,77,0.181521,10.014077
[MO833] Paramount Iteration,14,77,0.181525,10.014189
[MO833] Paramount Iteration,11,77,0.181491,10.014176
[MO833] Paramount Iteration,9,77,0.181554,10.013975
[MO833] Paramount Iteration,13,77,0.181561,10.014088
[MO833] Paramount Iteration,15,77,0.181475,10.014180
[MO833] Paramount Iteration,0,78,0.104091,10.117790
[MO833] Paramount Iteration,2,78,0.104159,10.118780
[MO833] Paramount Iteration,4,78,0.104126,10.118272
[MO833] Paramount Iteration,6,78,0.104148,10.118355
[MO833] Paramount Iteration,8,78,0.104084,10.118113
[MO833] Paramount Iteration,12,78,0.104097,10.118226
[MO833] Paramount Iteration,1,78,0.104156,10.118101
[MO833] Paramount Iteration,3,78,0.104111,10.118765
[MO833] Paramount Iteration,5,78,0.104170,10.118282
[MO833] Paramount Iteration,10,78,0.104155,10.118348
[MO833] Paramount Iteration,7,78,0.104102,10.118354
[MO833] Paramount Iteration,9,78,0.104128,10.118123
[MO833] Paramount Iteration,13,78,0.104142,10.118238
[MO833] Paramount Iteration,14,78,0.104157,10.118357
[MO833] Paramount Iteration,11,78,0.104107,10.118340
[MO833] Paramount Iteration,15,78,0.104118,10.118350
[MO833] Paramount Iteration,0,79,0.099475,10.217379
[MO833] Paramount Iteration,2,79,0.099585,10.218375
[MO833] Paramount Iteration,1,79,0.099581,10.217696
[MO833] Paramount Iteration,3,79,0.099542,10.218364
[MO833] Paramount Iteration,4,79,0.099548,10.217871
[MO833] Paramount Iteration,10,79,0.099584,10.217942
[MO833] Paramount Iteration,6,79,0.099587,10.218000
[MO833] Paramount Iteration,8,79,0.099559,10.217724
[MO833] Paramount Iteration,12,79,0.099587,10.217863
[MO833] Paramount Iteration,14,79,0.099624,10.217997
[MO833] Paramount Iteration,5,79,0.099593,10.217884
[MO833] Paramount Iteration,11,79,0.099520,10.217938
[MO833] Paramount Iteration,7,79,0.099618,10.218002
[MO833] Paramount Iteration,9,79,0.099600,10.217733
[MO833] Paramount Iteration,13,79,0.099630,10.217876
[MO833] Paramount Iteration,15,79,0.099580,10.217988
[MO833] Paramount Iteration,0,80,0.216550,10.434033
[MO833] Paramount Iteration,3,80,0.216620,10.435035
[MO833] Paramount Iteration,4,80,0.216562,10.434494
[MO833] Paramount Iteration,7,80,0.216595,10.434621
[MO833] Paramount Iteration,12,80,0.216564,10.434480
[MO833] Paramount Iteration,11,80,0.216609,10.434600
[MO833] Paramount Iteration,8,80,0.216607,10.434385
[MO833] Paramount Iteration,15,80,0.216563,10.434605
[MO833] Paramount Iteration,5,80,0.216744,10.434644
[MO833] Paramount Iteration,6,80,0.216698,10.434755
[MO833] Paramount Iteration,13,80,0.216747,10.434630
[MO833] Paramount Iteration,2,80,0.216793,10.435176
[MO833] Paramount Iteration,10,80,0.216794,10.434747
[MO833] Paramount Iteration,9,80,0.216798,10.434542
[MO833] Paramount Iteration,14,80,0.216750,10.434760
[MO833] Paramount Iteration,1,80,0.217057,10.434761
[MO833] Paramount Iteration,0,81,0.101982,10.536082
[MO833] Paramount Iteration,3,81,0.102000,10.537074
[MO833] Paramount Iteration,10,81,0.101821,10.536598
[MO833] Paramount Iteration,8,81,0.101965,10.536398
[MO833] Paramount Iteration,12,81,0.101997,10.536525
[MO833] Paramount Iteration,1,81,0.101580,10.536394
[MO833] Paramount Iteration,2,81,0.101901,10.537089
[MO833] Paramount Iteration,4,81,0.102051,10.536591
[MO833] Paramount Iteration,11,81,0.101945,10.536593
[MO833] Paramount Iteration,6,81,0.101925,10.536726
[MO833] Paramount Iteration,9,81,0.101853,10.536408
[MO833] Paramount Iteration,13,81,0.101901,10.536544
[MO833] Paramount Iteration,14,81,0.101895,10.536668
[MO833] Paramount Iteration,5,81,0.101944,10.536601
[MO833] Paramount Iteration,7,81,0.102059,10.536729
[MO833] Paramount Iteration,15,81,0.102001,10.536657
[MO833] Paramount Iteration,0,82,0.098407,10.634577
[MO833] Paramount Iteration,4,82,0.098409,10.635054
[MO833] Paramount Iteration,1,82,0.098487,10.634893
[MO833] Paramount Iteration,2,82,0.098523,10.635618
[MO833] Paramount Iteration,5,82,0.098457,10.635069
[MO833] Paramount Iteration,10,82,0.098480,10.635135
[MO833] Paramount Iteration,6,82,0.098416,10.635190
[MO833] Paramount Iteration,8,82,0.098486,10.634940
[MO833] Paramount Iteration,12,82,0.098468,10.635058
[MO833] Paramount Iteration,3,82,0.098485,10.635607
[MO833] Paramount Iteration,11,82,0.098516,10.635135
[MO833] Paramount Iteration,7,82,0.098443,10.635191
[MO833] Paramount Iteration,9,82,0.098531,10.634952
[MO833] Paramount Iteration,13,82,0.098513,10.635069
[MO833] Paramount Iteration,14,82,0.098505,10.635193
[MO833] Paramount Iteration,15,82,0.098454,10.635178
[MO833] Paramount Iteration,0,83,0.180426,10.815074
[MO833] Paramount Iteration,2,83,0.180442,10.816066
[MO833] Paramount Iteration,4,83,0.180444,10.815559
[MO833] Paramount Iteration,10,83,0.180437,10.815588
[MO833] Paramount Iteration,8,83,0.180385,10.815390
[MO833] Paramount Iteration,12,83,0.180413,10.815519
[MO833] Paramount Iteration,14,83,0.180446,10.815646
[MO833] Paramount Iteration,1,83,0.180480,10.815385
[MO833] Paramount Iteration,3,83,0.180403,10.816055
[MO833] Paramount Iteration,5,83,0.180487,10.815569
[MO833] Paramount Iteration,11,83,0.180395,10.815585
[MO833] Paramount Iteration,6,83,0.180432,10.815684
[MO833] Paramount Iteration,9,83,0.180440,10.815400
[MO833] Paramount Iteration,13,83,0.180453,10.815529
[MO833] Paramount Iteration,15,83,0.180403,10.815636
[MO833] Paramount Iteration,7,83,0.180466,10.815688
[MO833] Paramount Iteration,2,84,0.098514,10.914586
[MO833] Paramount Iteration,4,84,0.098428,10.914036
[MO833] Paramount Iteration,8,84,0.098443,10.913890
[MO833] Paramount Iteration,12,84,0.098442,10.914011
[MO833] Paramount Iteration,14,84,0.098468,10.914126
[MO833] Paramount Iteration,0,84,0.098393,10.913582
[MO833] Paramount Iteration,3,84,0.098450,10.914574
[MO833] Paramount Iteration,5,84,0.098467,10.914044
[MO833] Paramount Iteration,10,84,0.098496,10.914097
[MO833] Paramount Iteration,6,84,0.098421,10.914159
[MO833] Paramount Iteration,9,84,0.098486,10.913899
[MO833] Paramount Iteration,13,84,0.098483,10.914021
[MO833] Paramount Iteration,15,84,0.098424,10.914117
[MO833] Paramount Iteration,1,84,0.098494,10.913892
[MO833] Paramount Iteration,11,84,0.098450,10.914091
[MO833] Paramount Iteration,7,84,0.098455,10.914164
[MO833] Paramount Iteration,0,85,0.097971,11.011682
[MO833] Paramount Iteration,2,85,0.098102,11.012694
[MO833] Paramount Iteration,4,85,0.098056,11.012150
[MO833] Paramount Iteration,10,85,0.098121,11.012234
[MO833] Paramount Iteration,6,85,0.098061,11.012273
[MO833] Paramount Iteration,12,85,0.098072,11.012136
[MO833] Paramount Iteration,1,85,0.098098,11.012002
[MO833] Paramount Iteration,3,85,0.098059,11.012682
[MO833] Paramount Iteration,5,85,0.098098,11.012159
[MO833] Paramount Iteration,11,85,0.098079,11.012230
[MO833] Paramount Iteration,7,85,0.098088,11.012274
[MO833] Paramount Iteration,8,85,0.098102,11.012047
[MO833] Paramount Iteration,13,85,0.098120,11.012150
[MO833] Paramount Iteration,14,85,0.098132,11.012271
[MO833] Paramount Iteration,9,85,0.098146,11.012057
[MO833] Paramount Iteration,15,85,0.098087,11.012262
[MO833] Paramount Iteration,4,86,0.179101,11.191307
[MO833] Paramount Iteration,6,86,0.179112,11.191441
[MO833] Paramount Iteration,12,86,0.179109,11.191295
[MO833] Paramount Iteration,0,86,0.179102,11.190867
[MO833] Paramount Iteration,2,86,0.179170,11.191871
[MO833] Paramount Iteration,5,86,0.179144,11.191318
[MO833] Paramount Iteration,10,86,0.179182,11.191426
[MO833] Paramount Iteration,7,86,0.179143,11.191442
[MO833] Paramount Iteration,8,86,0.179114,11.191216
[MO833] Paramount Iteration,13,86,0.179148,11.191305
[MO833] Paramount Iteration,14,86,0.179166,11.191447
[MO833] Paramount Iteration,1,86,0.179168,11.191178
[MO833] Paramount Iteration,3,86,0.179133,11.191862
[MO833] Paramount Iteration,11,86,0.179141,11.191423
[MO833] Paramount Iteration,9,86,0.179159,11.191227
[MO833] Paramount Iteration,15,86,0.179108,11.191422
[MO833] Paramount Iteration,0,87,0.098439,11.289401
[MO833] Paramount Iteration,2,87,0.098520,11.290403
[MO833] Paramount Iteration,4,87,0.098540,11.289907
[MO833] Paramount Iteration,10,87,0.098510,11.289948
[MO833] Paramount Iteration,6,87,0.098511,11.290005
[MO833] Paramount Iteration,8,87,0.098496,11.289769
[MO833] Paramount Iteration,1,87,0.098536,11.289725
[MO833] Paramount Iteration,3,87,0.098480,11.290396
[MO833] Paramount Iteration,5,87,0.098585,11.289919
[MO833] Paramount Iteration,11,87,0.098466,11.289943
[MO833] Paramount Iteration,7,87,0.098539,11.290005
[MO833] Paramount Iteration,9,87,0.098540,11.289779
[MO833] Paramount Iteration,12,87,0.098554,11.289902
[MO833] Paramount Iteration,14,87,0.098543,11.290001
[MO833] Paramount Iteration,13,87,0.098599,11.289913
[MO833] Paramount Iteration,15,87,0.098497,11.289990
[MO833] Paramount Iteration,0,88,0.098713,11.388230
[MO833] Paramount Iteration,4,88,0.098729,11.388692
[MO833] Paramount Iteration,6,88,0.098762,11.388821
[MO833] Paramount Iteration,1,88,0.098809,11.388547
[MO833] Paramount Iteration,2,88,0.098849,11.389266
[MO833] Paramount Iteration,5,88,0.098768,11.388699
[MO833] Paramount Iteration,10,88,0.098849,11.388807
[MO833] Paramount Iteration,7,88,0.098793,11.388826
[MO833] Paramount Iteration,8,88,0.098777,11.388601
[MO833] Paramount Iteration,12,88,0.098725,11.388677
[MO833] Paramount Iteration,14,88,0.098795,11.388808
[MO833] Paramount Iteration,3,88,0.098802,11.389254
[MO833] Paramount Iteration,11,88,0.098801,11.388802
[MO833] Paramount Iteration,9,88,0.098821,11.388610
[MO833] Paramount Iteration,13,88,0.098766,11.388687
[MO833] Paramount Iteration,15,88,0.098749,11.388799
[MO833] Paramount Iteration,0,89,0.180212,11.568508
[MO833] Paramount Iteration,1,89,0.180268,11.568826
[MO833] Paramount Iteration,2,89,0.180250,11.569525
[MO833] Paramount Iteration,4,89,0.180268,11.569013
[MO833] Paramount Iteration,10,89,0.180253,11.569071
[MO833] Paramount Iteration,6,89,0.180263,11.569141
[MO833] Paramount Iteration,8,89,0.180219,11.568875
[MO833] Paramount Iteration,12,89,0.180262,11.568990
[MO833] Paramount Iteration,3,89,0.180207,11.569514
[MO833] Paramount Iteration,5,89,0.180313,11.569024
[MO833] Paramount Iteration,11,89,0.180209,11.569067
[MO833] Paramount Iteration,7,89,0.180292,11.569142
[MO833] Paramount Iteration,9,89,0.180263,11.568886
[MO833] Paramount Iteration,13,89,0.180303,11.569000
[MO833] Paramount Iteration,14,89,0.180309,11.569128
[MO833] Paramount Iteration,15,89,0.180265,11.569119
[MO833] Paramount Iteration,0,90,0.135534,11.704133
[MO833] Paramount Iteration,3,90,0.135620,11.705154
[MO833] Paramount Iteration,4,90,0.135568,11.704633
[MO833] Paramount Iteration,11,90,0.135533,11.704655
[MO833] Paramount Iteration,8,90,0.135539,11.704468
[MO833] Paramount Iteration,12,90,0.135545,11.704587
[MO833] Paramount Iteration,15,90,0.135526,11.704705
[MO833] Paramount Iteration,2,90,0.135761,11.705325
[MO833] Paramount Iteration,5,90,0.135751,11.704784
[MO833] Paramount Iteration,10,90,0.135715,11.704797
[MO833] Paramount Iteration,7,90,0.135610,11.704778
[MO833] Paramount Iteration,9,90,0.135724,11.704620
[MO833] Paramount Iteration,13,90,0.135723,11.704733
[MO833] Paramount Iteration,14,90,0.135727,11.704868
[MO833] Paramount Iteration,6,90,0.135762,11.704958
[MO833] Paramount Iteration,1,90,0.135976,11.704810
[MO833] Paramount Iteration,0,91,0.100224,11.804456
[MO833] Paramount Iteration,2,91,0.100109,11.805468
[MO833] Paramount Iteration,4,91,0.100276,11.804957
[MO833] Paramount Iteration,6,91,0.100093,11.805076
[MO833] Paramount Iteration,8,91,0.100307,11.804821
[MO833] Paramount Iteration,14,91,0.100180,11.805063
[MO833] Paramount Iteration,1,91,0.099910,11.804767
[MO833] Paramount Iteration,3,91,0.100287,11.805457
[MO833] Paramount Iteration,5,91,0.100170,11.804968
[MO833] Paramount Iteration,10,91,0.100173,11.805002
[MO833] Paramount Iteration,7,91,0.100283,11.805081
[MO833] Paramount Iteration,9,91,0.100198,11.804832
[MO833] Paramount Iteration,12,91,0.100324,11.804956
[MO833] Paramount Iteration,15,91,0.100290,11.805054
[MO833] Paramount Iteration,11,91,0.100290,11.804997
[MO833] Paramount Iteration,13,91,0.100221,11.804967
[MO833] Paramount Iteration,2,92,0.181503,11.987008
[MO833] Paramount Iteration,4,92,0.181424,11.986436
[MO833] Paramount Iteration,6,92,0.181435,11.986570
[MO833] Paramount Iteration,12,92,0.181425,11.986433
[MO833] Paramount Iteration,0,92,0.181267,11.985985
[MO833] Paramount Iteration,3,92,0.181524,11.987001
[MO833] Paramount Iteration,5,92,0.181466,11.986447
[MO833] Paramount Iteration,10,92,0.181529,11.986543
[MO833] Paramount Iteration,7,92,0.181468,11.986573
[MO833] Paramount Iteration,8,92,0.181495,11.986371
[MO833] Paramount Iteration,13,92,0.181466,11.986442
[MO833] Paramount Iteration,14,92,0.181476,11.986550
[MO833] Paramount Iteration,11,92,0.181487,11.986540
[MO833] Paramount Iteration,9,92,0.181536,11.986380
[MO833] Paramount Iteration,15,92,0.181431,11.986541
[MO833] Paramount Iteration,1,92,0.181523,11.986304
[MO833] Paramount Iteration,0,93,0.099698,12.085788
[MO833] Paramount Iteration,4,93,0.099762,12.086255
[MO833] Paramount Iteration,6,93,0.099767,12.086392
[MO833] Paramount Iteration,1,93,0.099523,12.086103
[MO833] Paramount Iteration,2,93,0.099784,12.086832
[MO833] Paramount Iteration,5,93,0.099806,12.086264
[MO833] Paramount Iteration,10,93,0.099808,12.086363
[MO833] Paramount Iteration,7,93,0.099797,12.086393
[MO833] Paramount Iteration,8,93,0.099738,12.086164
[MO833] Paramount Iteration,12,93,0.099770,12.086254
[MO833] Paramount Iteration,14,93,0.099808,12.086370
[MO833] Paramount Iteration,3,93,0.099802,12.086820
[MO833] Paramount Iteration,11,93,0.099765,12.086359
[MO833] Paramount Iteration,9,93,0.099781,12.086173
[MO833] Paramount Iteration,13,93,0.099812,12.086264
[MO833] Paramount Iteration,15,93,0.099765,12.086362
[MO833] Paramount Iteration,0,94,0.099302,12.185163
[MO833] Paramount Iteration,1,94,0.099363,12.185477
[MO833] Paramount Iteration,2,94,0.099335,12.186203
[MO833] Paramount Iteration,4,94,0.099366,12.185678
[MO833] Paramount Iteration,10,94,0.099351,12.185726
[MO833] Paramount Iteration,6,94,0.099363,12.185806
[MO833] Paramount Iteration,8,94,0.099321,12.185539
[MO833] Paramount Iteration,12,94,0.099335,12.185642
[MO833] Paramount Iteration,14,94,0.099377,12.185761
[MO833] Paramount Iteration,3,94,0.099355,12.186194
[MO833] Paramount Iteration,5,94,0.099413,12.185692
[MO833] Paramount Iteration,11,94,0.099307,12.185722
[MO833] Paramount Iteration,7,94,0.099395,12.185811
[MO833] Paramount Iteration,9,94,0.099368,12.185553
[MO833] Paramount Iteration,13,94,0.099377,12.185652
[MO833] Paramount Iteration,15,94,0.099333,12.185753
[MO833] Paramount Iteration,0,95,0.181670,12.366972
[MO833] Paramount Iteration,2,95,0.181760,12.368000
[MO833] Paramount Iteration,4,95,0.181688,12.367425
[MO833] Paramount Iteration,6,95,0.181702,12.367564
[MO833] Paramount Iteration,12,95,0.181722,12.367413
[MO833] Paramount Iteration,1,95,0.181802,12.367291
[MO833] Paramount Iteration,3,95,0.181781,12.367992
[MO833] Paramount Iteration,5,95,0.181733,12.367437
[MO833] Paramount Iteration,10,95,0.181781,12.367519
[MO833] Paramount Iteration,7,95,0.181737,12.367570
[MO833] Paramount Iteration,8,95,0.181750,12.367355
[MO833] Paramount Iteration,13,95,0.181764,12.367423
[MO833] Paramount Iteration,14,95,0.181760,12.367534
[MO833] Paramount Iteration,11,95,0.181739,12.367516
[MO833] Paramount Iteration,9,95,0.181804,12.367365
[MO833] Paramount Iteration,15,95,0.181717,12.367526
[MO833] Paramount Iteration,0,96,0.099839,12.466899
[MO833] Paramount Iteration,1,96,0.099916,12.467215
[MO833] Paramount Iteration,2,96,0.099897,12.467937
[MO833] Paramount Iteration,4,96,0.099909,12.467388
[MO833] Paramount Iteration,10,96,0.099923,12.467456
[MO833] Paramount Iteration,6,96,0.099904,12.467524
[MO833] Paramount Iteration,8,96,0.099859,12.467282
[MO833] Paramount Iteration,12,96,0.099922,12.467386
[MO833] Paramount Iteration,14,96,0.099962,12.467510
[MO833] Paramount Iteration,3,96,0.099914,12.467923
[MO833] Paramount Iteration,5,96,0.099953,12.467399
[MO833] Paramount Iteration,11,96,0.099881,12.467453
[MO833] Paramount Iteration,7,96,0.099937,12.467526
[MO833] Paramount Iteration,9,96,0.099914,12.467291
[MO833] Paramount Iteration,13,96,0.099968,12.467400
[MO833] Paramount Iteration,15,96,0.099913,12.467498
[MO833] Paramount Iteration,0,97,0.100432,12.567408
[MO833] Paramount Iteration,2,97,0.100459,12.568433
[MO833] Paramount Iteration,1,97,0.100502,12.567725
[MO833] Paramount Iteration,3,97,0.100480,12.568424
[MO833] Paramount Iteration,4,97,0.100457,12.567903
[MO833] Paramount Iteration,10,97,0.100483,12.567952
[MO833] Paramount Iteration,6,97,0.100452,12.568034
[MO833] Paramount Iteration,8,97,0.100451,12.567790
[MO833] Paramount Iteration,12,97,0.100468,12.567903
[MO833] Paramount Iteration,5,97,0.100503,12.567917
[MO833] Paramount Iteration,11,97,0.100440,12.567948
[MO833] Paramount Iteration,7,97,0.100484,12.568035
[MO833] Paramount Iteration,9,97,0.100496,12.567800
[MO833] Paramount Iteration,13,97,0.100507,12.567914
[MO833] Paramount Iteration,14,97,0.100493,12.568014
[MO833] Paramount Iteration,15,97,0.100449,12.568005
[MO833] Paramount Iteration,0,98,0.182737,12.750237
[MO833] Paramount Iteration,2,98,0.182797,12.751267
[MO833] Paramount Iteration,1,98,0.182815,12.750548
[MO833] Paramount Iteration,3,98,0.182814,12.751256
[MO833] Paramount Iteration,4,98,0.182795,12.750727
[MO833] Paramount Iteration,10,98,0.182816,12.750780
[MO833] Paramount Iteration,6,98,0.182778,12.750868
[MO833] Paramount Iteration,8,98,0.182762,12.750609
[MO833] Paramount Iteration,12,98,0.182767,12.750722
[MO833] Paramount Iteration,14,98,0.182817,12.750845
[MO833] Paramount Iteration,5,98,0.182767,12.750739
[MO833] Paramount Iteration,11,98,0.182772,12.750776
[MO833] Paramount Iteration,7,98,0.182811,12.750871
[MO833] Paramount Iteration,9,98,0.182806,12.750619
[MO833] Paramount Iteration,13,98,0.182811,12.750734
[MO833] Paramount Iteration,15,98,0.182757,12.750838
[MO833] Paramount Iteration,0,99,0.100213,12.850541
[MO833] Paramount Iteration,2,99,0.100270,12.851575
[MO833] Paramount Iteration,4,99,0.100275,12.851027
[MO833] Paramount Iteration,1,99,0.100299,12.850858
[MO833] Paramount Iteration,3,99,0.100290,12.851566
[MO833] Paramount Iteration,5,99,0.100244,12.851039
[MO833] Paramount Iteration,10,99,0.100296,12.851087
[MO833] Paramount Iteration,6,99,0.100232,12.851158
[MO833] Paramount Iteration,8,99,0.100263,12.850929
[MO833] Paramount Iteration,12,99,0.100255,12.851028
[MO833] Paramount Iteration,14,99,0.100271,12.851129
[MO833] Paramount Iteration,11,99,0.100251,12.851081
[MO833] Paramount Iteration,7,99,0.100267,12.851163
[MO833] Paramount Iteration,9,99,0.100306,12.850938
[MO833] Paramount Iteration,13,99,0.100297,12.851038
[MO833] Paramount Iteration,15,99,0.100225,12.851119
     100    1727.5561    1930.0116     3712.096    3597.8437         3844          248   -156.58211 
[MO833] Paramount Iteration,2,100,0.156160,13.007771
[MO833] Paramount Iteration,1,100,0.156183,13.007050
[MO833] Paramount Iteration,3,100,0.156187,13.007770
[MO833] Paramount Iteration,4,100,0.156192,13.007241
[MO833] Paramount Iteration,10,100,0.156186,13.007282
[MO833] Paramount Iteration,6,100,0.156151,13.007368
[MO833] Paramount Iteration,8,100,0.156139,13.007124
[MO833] Paramount Iteration,12,100,0.156160,13.007239
[MO833] Paramount Iteration,14,100,0.156205,13.007348
[MO833] Paramount Iteration,0,100,0.156206,13.006836
[MO833] Paramount Iteration,5,100,0.156151,13.007240
[MO833] Paramount Iteration,11,100,0.156151,13.007286
[MO833] Paramount Iteration,7,100,0.156198,13.007383
[MO833] Paramount Iteration,9,100,0.156171,13.007123
[MO833] Paramount Iteration,13,100,0.156191,13.007239
[MO833] Paramount Iteration,15,100,0.156170,13.007348
Loop time of 12.5741 on 16 procs for 100 steps with 24000 atoms

Performance: 1.374 ns/day, 17.464 hours/ns, 7.953 timesteps/s
76.9% CPU use with 16 MPI tasks x 1 OpenMP threads

MPI task timing breakdown:
Section |  min time  |  avg time  |  max time  |%varavg| %total
---------------------------------------------------------------
Pair    | 0.00012469 | 3.7099     | 8.1936     | 194.1 | 29.50
Bond    | 9.2506e-05 | 0.00018503 | 0.00024605 |   0.0 |  0.00
Kspace  | 1.4348     | 5.8657     | 9.5435     | 152.8 | 46.65
Neigh   | 2.4189     | 2.4432     | 2.4663     |   1.1 | 19.43
Comm    | 0.054518   | 0.16584    | 0.29313    |  26.2 |  1.32
Output  | 0.014835   | 0.016851   | 0.018305   |   0.7 |  0.13
Modify  | 0.19904    | 0.33728    | 0.47022    |  21.9 |  2.68
Other   |            | 0.0351     |            |       |  0.28

Nlocal:    1500 ave 3011 max 0 min
Histogram: 8 0 0 0 0 0 0 0 0 8
Nghost:    7445.69 ave 14909 max 0 min
Histogram: 8 0 0 0 0 0 0 0 0 8
Neighs:    1.02051e+06 ave 2.25439e+06 max 0 min
Histogram: 8 0 0 0 0 0 0 0 4 4

Total # of neighbors = 16328129
Ave neighs/atom = 680.339
Ave special neighs/atom = 2
Neighbor list builds = 31
Dangerous builds = 0
Total wall time: 0:00:13
[MO833] Beta,0,0.048542
[MO833] PI avg,0,0.125740,100
[MO833] Total time,13.184338
[MO833] Beta,3,0.048616
[MO833] PI avg,3,0.125740,100
[MO833] Beta,1,0.048576
[MO833] PI avg,1,0.125738,100
[MO833] Beta,2,0.048624
[MO833] PI avg,2,0.125741,100
[MO833] Beta,4,0.048596
[MO833] PI avg,4,0.125739,100
[MO833] Beta,10,0.048603
[MO833] PI avg,10,0.125738,100
[MO833] Beta,7,0.048601
[MO833] PI avg,7,0.125740,100
[MO833] Beta,12,0.048596
[MO833] Beta,8,0.048579
[MO833] PI avg,12,0.125739,100
[MO833] Beta,5,0.048605
[MO833] PI avg,8,0.125741,100
[MO833] PI avg,5,0.125739,100
[MO833] Beta,11,0.048614
[MO833] Beta,6,0.048608
[MO833] PI avg,11,0.125739,100
[MO833] PI avg,6,0.125740,100
[MO833] Beta,14,0.048619
[MO833] PI avg,14,0.125738,100
[MO833] Beta,15,0.048615
[MO833] PI avg,15,0.125739,100
[MO833] Beta,9,0.048603
[MO833] PI avg,9,0.125740,100
[MO833] Beta,13,0.048621
[MO833] PI avg,13,0.125739,100
