LAMMPS (3 Mar 2020)
OMP_NUM_THREADS environment is not set. Defaulting to 1 thread. (src/comm.cpp:94)
  using 1 OpenMP thread(s) per MPI task
Reading data file ...
  orthogonal box = (-16.796 -16.796 -16.796) to (16.796 16.796 16.796)
  2 by 2 by 4 MPI processor grid
  reading atoms ...
  32000 atoms
  reading velocities ...
  32000 velocities
  scanning bonds ...
  1 = max bonds/atom
  reading bonds ...
  31680 bonds
Finding 1-2 1-3 1-4 neighbors ...
  special bond factors lj:   0          1          1         
  special bond factors coul: 0          1          1         
  2 = max # of 1-2 neighbors
  2 = max # of special neighbors
  special bonds CPU = 0.00667906 secs
  read_data CPU = 0.159638 secs
Replicating atoms ...
  orthogonal box = (-16.796 -16.796 -16.796) to (117.572 117.572 117.572)
  2 by 2 by 4 MPI processor grid
  2048000 atoms
  2027520 bonds
Finding 1-2 1-3 1-4 neighbors ...
  special bond factors lj:   0          1          1         
  special bond factors coul: 0          1          1         
  2 = max # of 1-2 neighbors
  2 = max # of special neighbors
  special bonds CPU = 0.0765014 secs
  replicate CPU = 0.160918 secs
Neighbor list info ...
  update every 1 steps, delay 1 steps, check yes
  max neighbors/atom: 2000, page size: 100000
  master list distance cutoff = 1.52
  ghost atom cutoff = 1.52
  binsize = 0.76, bins = 177 177 177
  1 neighbor lists, perpetual/occasional/extra = 1 0 0
  (1) pair lj/cut, perpetual
      attributes: half, newton on
      pair build: half/bin/newton
      stencil: half/bin/3d/newton
      bin: standard
Setting up Verlet run ...
  Unit style    : lj
  Current step  : 0
  Time step     : 0.012
WARNING: Communication cutoff 1.52 is shorter than a bond length based estimate of 1.855. This may lead to errors. (src/comm.cpp:686)
Per MPI rank memory allocation (min/avg/max) = 50.41 | 50.41 | 50.41 Mbytes
Step Temp E_pair E_mol TotEng Press 
       0   0.97026787   0.44484087    20.494523    22.394765    4.6721833 
[MO833] Paramount Iteration,3,1,0.037543,0.682841
[MO833] Paramount Iteration,7,1,0.037608,0.682652
[MO833] Paramount Iteration,13,1,0.037606,0.682673
[MO833] Paramount Iteration,15,1,0.037658,0.682696
[MO833] Paramount Iteration,2,1,0.037886,0.683183
[MO833] Paramount Iteration,12,1,0.037960,0.683024
[MO833] Paramount Iteration,4,1,0.037963,0.683048
[MO833] Paramount Iteration,6,1,0.038015,0.683053
[MO833] Paramount Iteration,14,1,0.037990,0.683022
[MO833] Paramount Iteration,11,1,0.038027,0.682937
[MO833] Paramount Iteration,5,1,0.038145,0.683238
[MO833] Paramount Iteration,9,1,0.038295,0.683255
[MO833] Paramount Iteration,10,1,0.038377,0.683275
[MO833] Paramount Iteration,0,1,0.038505,0.683454
[MO833] Paramount Iteration,8,1,0.038519,0.683475
[MO833] Paramount Iteration,1,1,0.038875,0.683826
[MO833] Paramount Iteration,3,2,0.038579,0.721451
[MO833] Paramount Iteration,7,2,0.038564,0.721254
[MO833] Paramount Iteration,15,2,0.038523,0.721296
[MO833] Paramount Iteration,13,2,0.038906,0.721665
[MO833] Paramount Iteration,2,2,0.038790,0.722026
[MO833] Paramount Iteration,11,2,0.038545,0.721576
[MO833] Paramount Iteration,6,2,0.038717,0.721816
[MO833] Paramount Iteration,4,2,0.038780,0.721862
[MO833] Paramount Iteration,12,2,0.038823,0.721874
[MO833] Paramount Iteration,14,2,0.038908,0.721960
[MO833] Paramount Iteration,5,2,0.038882,0.722158
[MO833] Paramount Iteration,0,2,0.038759,0.722276
[MO833] Paramount Iteration,8,2,0.038691,0.722216
[MO833] Paramount Iteration,9,2,0.039114,0.722416
[MO833] Paramount Iteration,1,2,0.039087,0.723003
[MO833] Paramount Iteration,10,2,0.040265,0.723570
[MO833] Paramount Iteration,3,3,0.039430,0.760906
[MO833] Paramount Iteration,7,3,0.039375,0.760657
[MO833] Paramount Iteration,13,3,0.039248,0.760980
[MO833] Paramount Iteration,15,3,0.039513,0.760884
[MO833] Paramount Iteration,2,3,0.039198,0.761262
[MO833] Paramount Iteration,6,3,0.039246,0.761101
[MO833] Paramount Iteration,11,3,0.039349,0.761000
[MO833] Paramount Iteration,4,3,0.039389,0.761281
[MO833] Paramount Iteration,12,3,0.039399,0.761291
[MO833] Paramount Iteration,5,3,0.039203,0.761401
[MO833] Paramount Iteration,14,3,0.039314,0.761296
[MO833] Paramount Iteration,10,3,0.037759,0.761357
[MO833] Paramount Iteration,0,3,0.039277,0.761608
[MO833] Paramount Iteration,9,3,0.039293,0.761729
[MO833] Paramount Iteration,8,3,0.039463,0.761760
[MO833] Paramount Iteration,1,3,0.039037,0.762113
[MO833] Paramount Iteration,3,4,0.190645,0.951576
[MO833] Paramount Iteration,7,4,0.190649,0.951334
[MO833] Paramount Iteration,4,4,0.190146,0.951458
[MO833] Paramount Iteration,15,4,0.190369,0.951329
[MO833] Paramount Iteration,13,4,0.190512,0.951573
[MO833] Paramount Iteration,12,4,0.190356,0.951669
[MO833] Paramount Iteration,5,4,0.190304,0.951766
[MO833] Paramount Iteration,11,4,0.190544,0.951627
[MO833] Paramount Iteration,8,4,0.189886,0.951731
[MO833] Paramount Iteration,2,4,0.190865,0.952160
[MO833] Paramount Iteration,6,4,0.190748,0.951888
[MO833] Paramount Iteration,14,4,0.190564,0.951898
[MO833] Paramount Iteration,0,4,0.190355,0.952026
[MO833] Paramount Iteration,9,4,0.190265,0.952030
[MO833] Paramount Iteration,10,4,0.190922,0.952303
[MO833] Paramount Iteration,1,4,0.190676,0.952861
[MO833] Paramount Iteration,3,5,0.042113,0.993716
[MO833] Paramount Iteration,7,5,0.042108,0.993469
[MO833] Paramount Iteration,4,5,0.042122,0.993607
[MO833] Paramount Iteration,15,5,0.042114,0.993525
[MO833] Paramount Iteration,13,5,0.042196,0.993849
[MO833] Paramount Iteration,2,5,0.041940,0.994146
[MO833] Paramount Iteration,12,5,0.042195,0.993882
[MO833] Paramount Iteration,5,5,0.042183,0.993985
[MO833] Paramount Iteration,6,5,0.042000,0.993926
[MO833] Paramount Iteration,14,5,0.042005,0.993925
[MO833] Paramount Iteration,11,5,0.042188,0.993901
[MO833] Paramount Iteration,0,5,0.042109,0.994198
[MO833] Paramount Iteration,8,5,0.042350,0.994152
[MO833] Paramount Iteration,9,5,0.042384,0.994434
[MO833] Paramount Iteration,10,5,0.042001,0.994329
[MO833] Paramount Iteration,1,5,0.041973,0.994907
[MO833] Paramount Iteration,3,6,0.042644,1.036387
[MO833] Paramount Iteration,4,6,0.042452,1.036085
[MO833] Paramount Iteration,7,6,0.042562,1.036059
[MO833] Paramount Iteration,12,6,0.042317,1.036207
[MO833] Paramount Iteration,15,6,0.042640,1.036252
[MO833] Paramount Iteration,2,6,0.042452,1.036635
[MO833] Paramount Iteration,13,6,0.042444,1.036373
[MO833] Paramount Iteration,5,6,0.042470,1.036490
[MO833] Paramount Iteration,6,6,0.042498,1.036462
[MO833] Paramount Iteration,11,6,0.042524,1.036510
[MO833] Paramount Iteration,0,6,0.042384,1.036645
[MO833] Paramount Iteration,14,6,0.042733,1.036678
[MO833] Paramount Iteration,8,6,0.042445,1.036676
[MO833] Paramount Iteration,10,6,0.042480,1.036833
[MO833] Paramount Iteration,9,6,0.042791,1.037245
[MO833] Paramount Iteration,1,6,0.042547,1.037528
[MO833] Paramount Iteration,3,7,0.042147,1.078559
[MO833] Paramount Iteration,4,7,0.042239,1.078352
[MO833] Paramount Iteration,7,7,0.042234,1.078322
[MO833] Paramount Iteration,15,7,0.042031,1.078357
[MO833] Paramount Iteration,2,7,0.042201,1.078869
[MO833] Paramount Iteration,13,7,0.042147,1.078555
[MO833] Paramount Iteration,5,7,0.042122,1.078659
[MO833] Paramount Iteration,6,7,0.042181,1.078681
[MO833] Paramount Iteration,12,7,0.042442,1.078679
[MO833] Paramount Iteration,11,7,0.041952,1.078542
[MO833] Paramount Iteration,14,7,0.042071,1.078769
[MO833] Paramount Iteration,0,7,0.042244,1.078944
[MO833] Paramount Iteration,10,7,0.042010,1.078866
[MO833] Paramount Iteration,8,7,0.042219,1.078978
[MO833] Paramount Iteration,9,7,0.041862,1.079130
[MO833] Paramount Iteration,1,7,0.041931,1.079529
[MO833] Paramount Iteration,3,8,0.191977,1.270561
[MO833] Paramount Iteration,7,8,0.192017,1.270367
[MO833] Paramount Iteration,15,8,0.191993,1.270421
[MO833] Paramount Iteration,4,8,0.192183,1.270562
[MO833] Paramount Iteration,2,8,0.192144,1.271044
[MO833] Paramount Iteration,6,8,0.192021,1.270743
[MO833] Paramount Iteration,13,8,0.192139,1.270773
[MO833] Paramount Iteration,11,8,0.191989,1.270615
[MO833] Paramount Iteration,5,8,0.192212,1.270906
[MO833] Paramount Iteration,12,8,0.192170,1.270869
[MO833] Paramount Iteration,14,8,0.191977,1.270768
[MO833] Paramount Iteration,8,8,0.191964,1.271023
[MO833] Paramount Iteration,0,8,0.192135,1.271140
[MO833] Paramount Iteration,10,8,0.192191,1.271080
[MO833] Paramount Iteration,9,8,0.192032,1.271180
[MO833] Paramount Iteration,1,8,0.192031,1.271638
[MO833] Paramount Iteration,3,9,0.042130,1.312719
[MO833] Paramount Iteration,7,9,0.042268,1.312664
[MO833] Paramount Iteration,4,9,0.042234,1.312823
[MO833] Paramount Iteration,13,9,0.042079,1.312936
[MO833] Paramount Iteration,15,9,0.042394,1.312878
[MO833] Paramount Iteration,2,9,0.042191,1.313273
[MO833] Paramount Iteration,11,9,0.042146,1.312844
[MO833] Paramount Iteration,5,9,0.042167,1.313108
[MO833] Paramount Iteration,12,9,0.042204,1.313090
[MO833] Paramount Iteration,6,9,0.042399,1.313183
[MO833] Paramount Iteration,14,9,0.042500,1.313287
[MO833] Paramount Iteration,0,9,0.042094,1.313299
[MO833] Paramount Iteration,10,9,0.042163,1.313266
[MO833] Paramount Iteration,8,9,0.042286,1.313388
[MO833] Paramount Iteration,9,9,0.042345,1.313542
[MO833] Paramount Iteration,1,9,0.042387,1.314093
[MO833] Paramount Iteration,3,10,0.042246,1.354990
[MO833] Paramount Iteration,7,10,0.042206,1.354900
[MO833] Paramount Iteration,15,10,0.042002,1.354951
[MO833] Paramount Iteration,4,10,0.042245,1.355093
[MO833] Paramount Iteration,2,10,0.042042,1.355359
[MO833] Paramount Iteration,13,10,0.042125,1.355144
[MO833] Paramount Iteration,11,10,0.042164,1.355086
[MO833] Paramount Iteration,12,10,0.042149,1.355256
[MO833] Paramount Iteration,5,10,0.042240,1.355381
[MO833] Paramount Iteration,6,10,0.042188,1.355409
[MO833] Paramount Iteration,14,10,0.042121,1.355429
[MO833] Paramount Iteration,0,10,0.042228,1.355613
[MO833] Paramount Iteration,8,10,0.042062,1.355531
[MO833] Paramount Iteration,10,10,0.042268,1.355558
[MO833] Paramount Iteration,9,10,0.042177,1.355735
[MO833] Paramount Iteration,1,10,0.042233,1.356399
[MO833] Paramount Iteration,3,11,0.041982,1.396996
[MO833] Paramount Iteration,7,11,0.042246,1.397174
[MO833] Paramount Iteration,2,11,0.042223,1.397614
[MO833] Paramount Iteration,4,11,0.042299,1.397418
[MO833] Paramount Iteration,15,11,0.042408,1.397425
[MO833] Paramount Iteration,13,11,0.042302,1.397525
[MO833] Paramount Iteration,11,11,0.042198,1.397364
[MO833] Paramount Iteration,5,11,0.042351,1.397765
[MO833] Paramount Iteration,12,11,0.042455,1.397749
[MO833] Paramount Iteration,6,11,0.042310,1.397759
[MO833] Paramount Iteration,14,11,0.042422,1.397870
[MO833] Paramount Iteration,10,11,0.042275,1.397855
[MO833] Paramount Iteration,0,11,0.042371,1.398009
[MO833] Paramount Iteration,8,11,0.042353,1.397969
[MO833] Paramount Iteration,9,11,0.042279,1.398036
[MO833] Paramount Iteration,1,11,0.042261,1.398731
[MO833] Paramount Iteration,13,12,0.194782,1.592387
[MO833] Paramount Iteration,3,12,0.195978,1.593000
[MO833] Paramount Iteration,5,12,0.194977,1.592780
[MO833] Paramount Iteration,2,12,0.195415,1.593065
[MO833] Paramount Iteration,4,12,0.195381,1.592827
[MO833] Paramount Iteration,12,12,0.195252,1.593021
[MO833] Paramount Iteration,7,12,0.195809,1.593014
[MO833] Paramount Iteration,15,12,0.195509,1.593008
[MO833] Paramount Iteration,6,12,0.195332,1.593130
[MO833] Paramount Iteration,9,12,0.194988,1.593063
[MO833] Paramount Iteration,14,12,0.195298,1.593189
[MO833] Paramount Iteration,11,12,0.195726,1.593173
[MO833] Paramount Iteration,10,12,0.195311,1.593190
[MO833] Paramount Iteration,8,12,0.195355,1.593399
[MO833] Paramount Iteration,0,12,0.195471,1.593499
[MO833] Paramount Iteration,1,12,0.194973,1.593775
[MO833] Paramount Iteration,3,13,0.043805,1.636833
[MO833] Paramount Iteration,15,13,0.043523,1.636609
[MO833] Paramount Iteration,7,13,0.043757,1.636801
[MO833] Paramount Iteration,11,13,0.043420,1.636676
[MO833] Paramount Iteration,4,13,0.044142,1.636989
[MO833] Paramount Iteration,2,13,0.044293,1.637408
[MO833] Paramount Iteration,5,13,0.044529,1.637413
[MO833] Paramount Iteration,13,13,0.044895,1.637345
[MO833] Paramount Iteration,6,13,0.044238,1.637400
[MO833] Paramount Iteration,8,13,0.043827,1.637270
[MO833] Paramount Iteration,12,13,0.044347,1.637388
[MO833] Paramount Iteration,14,13,0.044119,1.637327
[MO833] Paramount Iteration,10,13,0.044235,1.637435
[MO833] Paramount Iteration,9,13,0.044532,1.637630
[MO833] Paramount Iteration,0,13,0.044199,1.637728
[MO833] Paramount Iteration,1,13,0.044725,1.638570
[MO833] Paramount Iteration,13,14,0.043717,1.681143
[MO833] Paramount Iteration,3,14,0.044686,1.681542
[MO833] Paramount Iteration,5,14,0.044052,1.681499
[MO833] Paramount Iteration,7,14,0.044610,1.681442
[MO833] Paramount Iteration,15,14,0.044753,1.681434
[MO833] Paramount Iteration,4,14,0.044581,1.681597
[MO833] Paramount Iteration,2,14,0.044478,1.681922
[MO833] Paramount Iteration,12,14,0.044326,1.681723
[MO833] Paramount Iteration,6,14,0.044305,1.681747
[MO833] Paramount Iteration,14,14,0.044392,1.681741
[MO833] Paramount Iteration,11,14,0.044865,1.681624
[MO833] Paramount Iteration,9,14,0.044054,1.681707
[MO833] Paramount Iteration,10,14,0.044416,1.681874
[MO833] Paramount Iteration,8,14,0.044776,1.682127
[MO833] Paramount Iteration,0,14,0.044456,1.682209
[MO833] Paramount Iteration,1,14,0.043958,1.682603
[MO833] Paramount Iteration,3,15,0.043667,1.725236
[MO833] Paramount Iteration,7,15,0.043659,1.725130
[MO833] Paramount Iteration,15,15,0.043679,1.725183
[MO833] Paramount Iteration,13,15,0.044040,1.725265
[MO833] Paramount Iteration,4,15,0.043721,1.725334
[MO833] Paramount Iteration,11,15,0.043527,1.725230
[MO833] Paramount Iteration,2,15,0.043747,1.725703
[MO833] Paramount Iteration,12,15,0.043771,1.725514
[MO833] Paramount Iteration,5,15,0.044085,1.725667
[MO833] Paramount Iteration,6,15,0.043868,1.725654
[MO833] Paramount Iteration,14,15,0.043984,1.725744
[MO833] Paramount Iteration,9,15,0.043957,1.725699
[MO833] Paramount Iteration,8,15,0.043651,1.725821
[MO833] Paramount Iteration,0,15,0.043760,1.725989
[MO833] Paramount Iteration,10,15,0.044036,1.725932
[MO833] Paramount Iteration,1,15,0.043957,1.726630
[MO833] Paramount Iteration,13,16,0.197095,1.922442
[MO833] Paramount Iteration,3,16,0.197606,1.922867
[MO833] Paramount Iteration,4,16,0.197379,1.922740
[MO833] Paramount Iteration,5,16,0.197032,1.922735
[MO833] Paramount Iteration,2,16,0.197265,1.923002
[MO833] Paramount Iteration,6,16,0.197086,1.922779
[MO833] Paramount Iteration,7,16,0.197632,1.922792
[MO833] Paramount Iteration,12,16,0.197330,1.922863
[MO833] Paramount Iteration,9,16,0.197110,1.922844
[MO833] Paramount Iteration,0,16,0.197062,1.923076
[MO833] Paramount Iteration,11,16,0.197646,1.922953
[MO833] Paramount Iteration,10,16,0.197046,1.923001
[MO833] Paramount Iteration,8,16,0.197323,1.923202
[MO833] Paramount Iteration,14,16,0.197464,1.923229
[MO833] Paramount Iteration,15,16,0.198084,1.923339
[MO833] Paramount Iteration,1,16,0.196765,1.923469
[MO833] Paramount Iteration,3,17,0.042653,1.965548
[MO833] Paramount Iteration,7,17,0.042689,1.965491
[MO833] Paramount Iteration,11,17,0.042367,1.965390
[MO833] Paramount Iteration,15,17,0.042161,1.965567
[MO833] Paramount Iteration,4,17,0.042939,1.965688
[MO833] Paramount Iteration,13,17,0.043178,1.965703
[MO833] Paramount Iteration,12,17,0.042856,1.965738
[MO833] Paramount Iteration,2,17,0.042967,1.966014
[MO833] Paramount Iteration,8,17,0.042458,1.965699
[MO833] Paramount Iteration,5,17,0.043285,1.966101
[MO833] Paramount Iteration,6,17,0.043179,1.966025
[MO833] Paramount Iteration,0,17,0.042960,1.966060
[MO833] Paramount Iteration,9,17,0.043149,1.966027
[MO833] Paramount Iteration,14,17,0.042917,1.966180
[MO833] Paramount Iteration,10,17,0.043050,1.966080
[MO833] Paramount Iteration,1,17,0.043271,1.966806
[MO833] Paramount Iteration,7,18,0.042647,2.008169
[MO833] Paramount Iteration,15,18,0.042575,2.008220
[MO833] Paramount Iteration,3,18,0.043003,2.008576
[MO833] Paramount Iteration,4,18,0.042711,2.008425
[MO833] Paramount Iteration,11,18,0.042781,2.008249
[MO833] Paramount Iteration,12,18,0.042984,2.008729
[MO833] Paramount Iteration,8,18,0.042891,2.008659
[MO833] Paramount Iteration,13,18,0.043022,2.008815
[MO833] Paramount Iteration,0,18,0.042696,2.008774
[MO833] Paramount Iteration,6,18,0.042795,2.008858
[MO833] Paramount Iteration,2,18,0.043084,2.009134
[MO833] Paramount Iteration,5,18,0.042827,2.008965
[MO833] Paramount Iteration,14,18,0.042794,2.008998
[MO833] Paramount Iteration,9,18,0.043054,2.009100
[MO833] Paramount Iteration,10,18,0.042936,2.009038
[MO833] Paramount Iteration,1,18,0.042807,2.009683
[MO833] Paramount Iteration,3,19,0.042399,2.051002
[MO833] Paramount Iteration,7,19,0.042516,2.050713
[MO833] Paramount Iteration,15,19,0.042339,2.050624
[MO833] Paramount Iteration,11,19,0.042423,2.050750
[MO833] Paramount Iteration,4,19,0.042573,2.051025
[MO833] Paramount Iteration,13,19,0.042317,2.051166
[MO833] Paramount Iteration,2,19,0.042289,2.051458
[MO833] Paramount Iteration,5,19,0.042350,2.051352
[MO833] Paramount Iteration,6,19,0.042386,2.051286
[MO833] Paramount Iteration,12,19,0.042562,2.051320
[MO833] Paramount Iteration,14,19,0.042280,2.051299
[MO833] Paramount Iteration,10,19,0.042303,2.051367
[MO833] Paramount Iteration,8,19,0.042730,2.051459
[MO833] Paramount Iteration,9,19,0.042326,2.051446
[MO833] Paramount Iteration,0,19,0.042929,2.051722
[MO833] Paramount Iteration,1,19,0.042396,2.052148
[MO833] Paramount Iteration,3,20,0.197166,2.248192
[MO833] Paramount Iteration,7,20,0.197350,2.248092
[MO833] Paramount Iteration,4,20,0.197339,2.248391
[MO833] Paramount Iteration,15,20,0.197659,2.248356
[MO833] Paramount Iteration,13,20,0.197263,2.248517
[MO833] Paramount Iteration,11,20,0.197551,2.248371
[MO833] Paramount Iteration,2,20,0.197416,2.248909
[MO833] Paramount Iteration,5,20,0.197337,2.248722
[MO833] Paramount Iteration,6,20,0.197318,2.248644
[MO833] Paramount Iteration,12,20,0.197329,2.248692
[MO833] Paramount Iteration,0,20,0.196934,2.248719
[MO833] Paramount Iteration,14,20,0.197475,2.248796
[MO833] Paramount Iteration,8,20,0.197263,2.248789
[MO833] Paramount Iteration,9,20,0.197453,2.248929
[MO833] Paramount Iteration,10,20,0.197614,2.249002
[MO833] Paramount Iteration,1,20,0.197229,2.249399
[MO833] Paramount Iteration,3,21,0.042806,2.291027
[MO833] Paramount Iteration,7,21,0.042711,2.290833
[MO833] Paramount Iteration,4,21,0.042814,2.291233
[MO833] Paramount Iteration,13,21,0.042617,2.291213
[MO833] Paramount Iteration,15,21,0.042699,2.291127
[MO833] Paramount Iteration,11,21,0.042673,2.291117
[MO833] Paramount Iteration,2,21,0.042664,2.291612
[MO833] Paramount Iteration,5,21,0.042725,2.291483
[MO833] Paramount Iteration,6,21,0.042746,2.291431
[MO833] Paramount Iteration,12,21,0.042833,2.291546
[MO833] Paramount Iteration,14,21,0.042730,2.291547
[MO833] Paramount Iteration,8,21,0.042826,2.291683
[MO833] Paramount Iteration,10,21,0.042670,2.291696
[MO833] Paramount Iteration,0,21,0.043036,2.291818
[MO833] Paramount Iteration,9,21,0.042915,2.291860
[MO833] Paramount Iteration,1,21,0.043121,2.292541
[MO833] Paramount Iteration,13,22,0.043759,2.335034
[MO833] Paramount Iteration,3,22,0.044341,2.335392
[MO833] Paramount Iteration,4,22,0.044010,2.335270
[MO833] Paramount Iteration,7,22,0.044375,2.335236
[MO833] Paramount Iteration,15,22,0.044079,2.335279
[MO833] Paramount Iteration,2,22,0.043999,2.335644
[MO833] Paramount Iteration,12,22,0.043889,2.335455
[MO833] Paramount Iteration,5,22,0.044028,2.335544
[MO833] Paramount Iteration,6,22,0.044002,2.335474
[MO833] Paramount Iteration,9,22,0.043655,2.335534
[MO833] Paramount Iteration,14,22,0.044003,2.335588
[MO833] Paramount Iteration,0,22,0.043868,2.335753
[MO833] Paramount Iteration,8,22,0.044042,2.335805
[MO833] Paramount Iteration,11,22,0.044486,2.335682
[MO833] Paramount Iteration,10,22,0.044178,2.335898
[MO833] Paramount Iteration,1,22,0.043696,2.336258
[MO833] Paramount Iteration,3,23,0.043769,2.379188
[MO833] Paramount Iteration,7,23,0.043694,2.378959
[MO833] Paramount Iteration,4,23,0.043930,2.379226
[MO833] Paramount Iteration,13,23,0.044112,2.379222
[MO833] Paramount Iteration,15,23,0.043866,2.379234
[MO833] Paramount Iteration,2,23,0.043935,2.379612
[MO833] Paramount Iteration,5,23,0.043848,2.379424
[MO833] Paramount Iteration,6,23,0.043910,2.379418
[MO833] Paramount Iteration,11,23,0.043520,2.379280
[MO833] Paramount Iteration,12,23,0.044083,2.379557
[MO833] Paramount Iteration,14,23,0.044038,2.379645
[MO833] Paramount Iteration,10,23,0.043786,2.379704
[MO833] Paramount Iteration,8,23,0.043959,2.379799
[MO833] Paramount Iteration,9,23,0.044217,2.379782
[MO833] Paramount Iteration,0,23,0.044056,2.379869
[MO833] Paramount Iteration,1,23,0.044115,2.380393
[MO833] Paramount Iteration,3,24,0.205456,2.584668
[MO833] Paramount Iteration,7,24,0.205535,2.584523
[MO833] Paramount Iteration,4,24,0.205559,2.584812
[MO833] Paramount Iteration,13,24,0.205506,2.584805
[MO833] Paramount Iteration,15,24,0.205446,2.584752
[MO833] Paramount Iteration,2,24,0.205557,2.585215
[MO833] Paramount Iteration,5,24,0.205593,2.585050
[MO833] Paramount Iteration,11,24,0.205450,2.584808
[MO833] Paramount Iteration,12,24,0.205456,2.585033
[MO833] Paramount Iteration,6,24,0.205592,2.585049
[MO833] Paramount Iteration,14,24,0.205498,2.585163
[MO833] Paramount Iteration,8,24,0.205262,2.585126
[MO833] Paramount Iteration,0,24,0.205378,2.585306
[MO833] Paramount Iteration,9,24,0.205446,2.585259
[MO833] Paramount Iteration,10,24,0.205607,2.585335
[MO833] Paramount Iteration,1,24,0.205550,2.585965
[MO833] Paramount Iteration,3,25,0.045404,2.630100
[MO833] Paramount Iteration,13,25,0.044936,2.629827
[MO833] Paramount Iteration,7,25,0.045450,2.630004
[MO833] Paramount Iteration,9,25,0.044712,2.629990
[MO833] Paramount Iteration,4,25,0.045334,2.630175
[MO833] Paramount Iteration,15,25,0.045265,2.630094
[MO833] Paramount Iteration,2,25,0.045149,2.630402
[MO833] Paramount Iteration,5,25,0.045103,2.630190
[MO833] Paramount Iteration,11,25,0.045164,2.630049
[MO833] Paramount Iteration,6,25,0.045217,2.630307
[MO833] Paramount Iteration,12,25,0.045273,2.630327
[MO833] Paramount Iteration,14,25,0.045171,2.630356
[MO833] Paramount Iteration,8,25,0.045169,2.630367
[MO833] Paramount Iteration,10,25,0.044999,2.630358
[MO833] Paramount Iteration,0,25,0.045467,2.630830
[MO833] Paramount Iteration,1,25,0.045119,2.631105
[MO833] Paramount Iteration,13,26,0.045041,2.674949
[MO833] Paramount Iteration,3,26,0.045326,2.675449
[MO833] Paramount Iteration,5,26,0.045202,2.675463
[MO833] Paramount Iteration,12,26,0.045104,2.675452
[MO833] Paramount Iteration,15,26,0.045170,2.675337
[MO833] Paramount Iteration,2,26,0.045264,2.675698
[MO833] Paramount Iteration,4,26,0.045313,2.675512
[MO833] Paramount Iteration,7,26,0.045459,2.675493
[MO833] Paramount Iteration,9,26,0.045444,2.675466
[MO833] Paramount Iteration,14,26,0.045220,2.675595
[MO833] Paramount Iteration,6,26,0.045340,2.675687
[MO833] Paramount Iteration,11,26,0.045493,2.675622
[MO833] Paramount Iteration,8,26,0.045326,2.675732
[MO833] Paramount Iteration,10,26,0.045548,2.675928
[MO833] Paramount Iteration,0,26,0.045178,2.676076
[MO833] Paramount Iteration,1,26,0.045260,2.676387
[MO833] Paramount Iteration,3,27,0.044757,2.720232
[MO833] Paramount Iteration,15,27,0.044713,2.720129
[MO833] Paramount Iteration,11,27,0.044361,2.720068
[MO833] Paramount Iteration,4,27,0.044775,2.720302
[MO833] Paramount Iteration,7,27,0.044794,2.720316
[MO833] Paramount Iteration,12,27,0.045071,2.720543
[MO833] Paramount Iteration,13,27,0.045516,2.720540
[MO833] Paramount Iteration,2,27,0.045160,2.720890
[MO833] Paramount Iteration,5,27,0.045210,2.720736
[MO833] Paramount Iteration,8,27,0.044787,2.720558
[MO833] Paramount Iteration,14,27,0.045304,2.720917
[MO833] Paramount Iteration,6,27,0.045280,2.721001
[MO833] Paramount Iteration,9,27,0.045457,2.720953
[MO833] Paramount Iteration,10,27,0.044954,2.720904
[MO833] Paramount Iteration,0,27,0.044970,2.721110
[MO833] Paramount Iteration,1,27,0.045557,2.721964
[MO833] Paramount Iteration,3,28,0.208461,2.928719
[MO833] Paramount Iteration,7,28,0.208173,2.928521
[MO833] Paramount Iteration,4,28,0.208432,2.928761
[MO833] Paramount Iteration,15,28,0.208455,2.928656
[MO833] Paramount Iteration,11,28,0.208429,2.928573
[MO833] Paramount Iteration,2,28,0.208151,2.929077
[MO833] Paramount Iteration,6,28,0.207819,2.928864
[MO833] Paramount Iteration,13,28,0.208322,2.928933
[MO833] Paramount Iteration,14,28,0.207982,2.928921
[MO833] Paramount Iteration,5,28,0.208292,2.929063
[MO833] Paramount Iteration,12,28,0.208583,2.929139
[MO833] Paramount Iteration,10,28,0.208033,2.928960
[MO833] Paramount Iteration,8,28,0.208558,2.929188
[MO833] Paramount Iteration,9,28,0.208264,2.929238
[MO833] Paramount Iteration,0,28,0.208359,2.929530
[MO833] Paramount Iteration,1,28,0.208052,2.930043
[MO833] Paramount Iteration,3,29,0.045748,2.974494
[MO833] Paramount Iteration,15,29,0.045606,2.974328
[MO833] Paramount Iteration,7,29,0.045937,2.974488
[MO833] Paramount Iteration,4,29,0.045836,2.974625
[MO833] Paramount Iteration,13,29,0.045636,2.974657
[MO833] Paramount Iteration,12,29,0.045604,2.974762
[MO833] Paramount Iteration,11,29,0.045912,2.974561
[MO833] Paramount Iteration,8,29,0.045417,2.974675
[MO833] Paramount Iteration,2,29,0.045998,2.975110
[MO833] Paramount Iteration,5,29,0.045842,2.974939
[MO833] Paramount Iteration,14,29,0.045958,2.974899
[MO833] Paramount Iteration,6,29,0.046111,2.975014
[MO833] Paramount Iteration,9,29,0.045696,2.974943
[MO833] Paramount Iteration,0,29,0.045525,2.975131
[MO833] Paramount Iteration,10,29,0.046297,2.975278
[MO833] Paramount Iteration,1,29,0.045768,2.975834
[MO833] Paramount Iteration,3,30,0.045306,3.019825
[MO833] Paramount Iteration,15,30,0.045300,3.019703
[MO833] Paramount Iteration,4,30,0.045184,3.019836
[MO833] Paramount Iteration,7,30,0.045328,3.019844
[MO833] Paramount Iteration,13,30,0.045159,3.019898
[MO833] Paramount Iteration,2,30,0.045120,3.020267
[MO833] Paramount Iteration,5,30,0.045174,3.020147
[MO833] Paramount Iteration,12,30,0.045308,3.020089
[MO833] Paramount Iteration,8,30,0.045266,3.020009
[MO833] Paramount Iteration,11,30,0.045292,3.019932
[MO833] Paramount Iteration,9,30,0.045166,3.020128
[MO833] Paramount Iteration,14,30,0.045240,3.020162
[MO833] Paramount Iteration,6,30,0.045262,3.020317
[MO833] Paramount Iteration,0,30,0.045270,3.020462
[MO833] Paramount Iteration,10,30,0.045110,3.020407
[MO833] Paramount Iteration,1,30,0.045260,3.021114
[MO833] Paramount Iteration,3,31,0.044910,3.064760
[MO833] Paramount Iteration,7,31,0.044865,3.064739
[MO833] Paramount Iteration,4,31,0.044996,3.064859
[MO833] Paramount Iteration,13,31,0.044908,3.064886
[MO833] Paramount Iteration,2,31,0.044863,3.065165
[MO833] Paramount Iteration,15,31,0.045150,3.064920
[MO833] Paramount Iteration,5,31,0.044897,3.065079
[MO833] Paramount Iteration,12,31,0.045121,3.065228
[MO833] Paramount Iteration,11,31,0.045065,3.065082
[MO833] Paramount Iteration,6,31,0.044936,3.065297
[MO833] Paramount Iteration,8,31,0.045201,3.065279
[MO833] Paramount Iteration,9,31,0.045141,3.065288
[MO833] Paramount Iteration,14,31,0.045250,3.065432
[MO833] Paramount Iteration,10,31,0.045081,3.065511
[MO833] Paramount Iteration,0,31,0.045096,3.065623
[MO833] Paramount Iteration,1,31,0.045145,3.066278
[MO833] Paramount Iteration,3,32,0.205183,3.269967
[MO833] Paramount Iteration,11,32,0.204617,3.269788
[MO833] Paramount Iteration,7,32,0.205134,3.269904
[MO833] Paramount Iteration,13,32,0.204949,3.269940
[MO833] Paramount Iteration,2,32,0.205099,3.270296
[MO833] Paramount Iteration,15,32,0.205093,3.270091
[MO833] Paramount Iteration,4,32,0.205408,3.270295
[MO833] Paramount Iteration,6,32,0.204896,3.270233
[MO833] Paramount Iteration,5,32,0.205191,3.270303
[MO833] Paramount Iteration,10,32,0.204616,3.270150
[MO833] Paramount Iteration,9,32,0.204909,3.270211
[MO833] Paramount Iteration,12,32,0.205167,3.270415
[MO833] Paramount Iteration,14,32,0.204926,3.270380
[MO833] Paramount Iteration,8,32,0.205154,3.270505
[MO833] Paramount Iteration,0,32,0.204969,3.270643
[MO833] Paramount Iteration,1,32,0.204802,3.271103
[MO833] Paramount Iteration,3,33,0.045350,3.315344
[MO833] Paramount Iteration,11,33,0.045365,3.315224
[MO833] Paramount Iteration,7,33,0.045470,3.315402
[MO833] Paramount Iteration,15,33,0.045170,3.315334
[MO833] Paramount Iteration,4,33,0.045185,3.315501
[MO833] Paramount Iteration,8,33,0.044977,3.315524
[MO833] Paramount Iteration,2,33,0.045651,3.315982
[MO833] Paramount Iteration,12,33,0.045330,3.315765
[MO833] Paramount Iteration,13,33,0.045756,3.315780
[MO833] Paramount Iteration,0,33,0.045143,3.315846
[MO833] Paramount Iteration,5,33,0.045627,3.316010
[MO833] Paramount Iteration,6,33,0.045673,3.315945
[MO833] Paramount Iteration,9,33,0.045848,3.316091
[MO833] Paramount Iteration,14,33,0.045708,3.316108
[MO833] Paramount Iteration,10,33,0.045870,3.316041
[MO833] Paramount Iteration,1,33,0.045664,3.316789
[MO833] Paramount Iteration,3,34,0.045025,3.360395
[MO833] Paramount Iteration,7,34,0.044900,3.360331
[MO833] Paramount Iteration,11,34,0.044925,3.360225
[MO833] Paramount Iteration,15,34,0.045023,3.360450
[MO833] Paramount Iteration,4,34,0.045187,3.360715
[MO833] Paramount Iteration,2,34,0.045017,3.361033
[MO833] Paramount Iteration,13,34,0.045021,3.360881
[MO833] Paramount Iteration,12,34,0.045185,3.360977
[MO833] Paramount Iteration,6,34,0.044977,3.360961
[MO833] Paramount Iteration,5,34,0.045030,3.361074
[MO833] Paramount Iteration,0,34,0.045267,3.361176
[MO833] Paramount Iteration,8,34,0.045511,3.361110
[MO833] Paramount Iteration,10,34,0.045052,3.361115
[MO833] Paramount Iteration,9,34,0.045102,3.361216
[MO833] Paramount Iteration,14,34,0.045148,3.361279
[MO833] Paramount Iteration,1,34,0.045080,3.361892
[MO833] Paramount Iteration,3,35,0.045184,3.405603
[MO833] Paramount Iteration,7,35,0.045304,3.405662
[MO833] Paramount Iteration,11,35,0.045269,3.405572
[MO833] Paramount Iteration,15,35,0.045170,3.405701
[MO833] Paramount Iteration,2,35,0.044995,3.406063
[MO833] Paramount Iteration,4,35,0.045156,3.405897
[MO833] Paramount Iteration,12,35,0.044950,3.405943
[MO833] Paramount Iteration,13,35,0.044975,3.405956
[MO833] Paramount Iteration,8,35,0.044854,3.406042
[MO833] Paramount Iteration,6,35,0.045251,3.406254
[MO833] Paramount Iteration,5,35,0.045268,3.406377
[MO833] Paramount Iteration,10,35,0.045098,3.406237
[MO833] Paramount Iteration,14,35,0.045053,3.406355
[MO833] Paramount Iteration,9,35,0.045239,3.406472
[MO833] Paramount Iteration,0,35,0.045348,3.406579
[MO833] Paramount Iteration,1,35,0.045566,3.407481
[MO833] Paramount Iteration,3,36,0.208108,3.613740
[MO833] Paramount Iteration,7,36,0.207777,3.613469
[MO833] Paramount Iteration,4,36,0.207804,3.613728
[MO833] Paramount Iteration,2,36,0.208101,3.614209
[MO833] Paramount Iteration,5,36,0.207670,3.614086
[MO833] Paramount Iteration,6,36,0.207680,3.613975
[MO833] Paramount Iteration,13,36,0.207979,3.614007
[MO833] Paramount Iteration,15,36,0.208187,3.613966
[MO833] Paramount Iteration,11,36,0.208255,3.613901
[MO833] Paramount Iteration,12,36,0.208138,3.614108
[MO833] Paramount Iteration,14,36,0.207916,3.614295
[MO833] Paramount Iteration,8,36,0.208240,3.614358
[MO833] Paramount Iteration,10,36,0.208148,3.614408
[MO833] Paramount Iteration,9,36,0.208040,3.614533
[MO833] Paramount Iteration,0,36,0.207964,3.614605
[MO833] Paramount Iteration,1,36,0.207697,3.615203
[MO833] Paramount Iteration,3,37,0.046375,3.660143
[MO833] Paramount Iteration,7,37,0.046431,3.659931
[MO833] Paramount Iteration,4,37,0.046493,3.660248
[MO833] Paramount Iteration,15,37,0.046376,3.660420
[MO833] Paramount Iteration,6,37,0.046523,3.660538
[MO833] Paramount Iteration,5,37,0.046551,3.660671
[MO833] Paramount Iteration,2,37,0.046604,3.660849
[MO833] Paramount Iteration,12,37,0.046530,3.660657
[MO833] Paramount Iteration,11,37,0.046553,3.660528
[MO833] Paramount Iteration,13,37,0.046578,3.660672
[MO833] Paramount Iteration,0,37,0.046082,3.660751
[MO833] Paramount Iteration,14,37,0.046582,3.660899
[MO833] Paramount Iteration,8,37,0.046501,3.660940
[MO833] Paramount Iteration,10,37,0.046724,3.661154
[MO833] Paramount Iteration,9,37,0.046704,3.661257
[MO833] Paramount Iteration,1,37,0.046508,3.661735
[MO833] Paramount Iteration,3,38,0.046053,3.706223
[MO833] Paramount Iteration,13,38,0.045258,3.706014
[MO833] Paramount Iteration,4,38,0.045884,3.706160
[MO833] Paramount Iteration,2,38,0.045525,3.706409
[MO833] Paramount Iteration,5,38,0.045642,3.706348
[MO833] Paramount Iteration,7,38,0.046320,3.706279
[MO833] Paramount Iteration,6,38,0.045795,3.706373
[MO833] Paramount Iteration,12,38,0.045809,3.706495
[MO833] Paramount Iteration,14,38,0.045734,3.706654
[MO833] Paramount Iteration,11,38,0.045923,3.706535
[MO833] Paramount Iteration,0,38,0.045841,3.706652
[MO833] Paramount Iteration,15,38,0.046140,3.706637
[MO833] Paramount Iteration,9,38,0.045466,3.706745
[MO833] Paramount Iteration,10,38,0.045633,3.706814
[MO833] Paramount Iteration,1,38,0.045335,3.707091
[MO833] Paramount Iteration,8,38,0.046071,3.707100
[MO833] Paramount Iteration,13,39,0.046102,3.752202
[MO833] Paramount Iteration,5,39,0.046014,3.752393
[MO833] Paramount Iteration,2,39,0.046116,3.752569
[MO833] Paramount Iteration,4,39,0.046258,3.752445
[MO833] Paramount Iteration,3,39,0.046330,3.752577
[MO833] Paramount Iteration,6,39,0.046066,3.752469
[MO833] Paramount Iteration,7,39,0.046156,3.752465
[MO833] Paramount Iteration,12,39,0.046216,3.752733
[MO833] Paramount Iteration,9,39,0.045849,3.752632
[MO833] Paramount Iteration,14,39,0.046126,3.752789
[MO833] Paramount Iteration,15,39,0.046228,3.752943
[MO833] Paramount Iteration,11,39,0.046260,3.752881
[MO833] Paramount Iteration,10,39,0.046065,3.752903
[MO833] Paramount Iteration,0,39,0.046327,3.753049
[MO833] Paramount Iteration,1,39,0.046070,3.753184
[MO833] Paramount Iteration,8,39,0.046024,3.753171
[MO833] Paramount Iteration,3,40,0.207941,3.960529
[MO833] Paramount Iteration,7,40,0.207817,3.960310
[MO833] Paramount Iteration,4,40,0.208055,3.960517
[MO833] Paramount Iteration,15,40,0.207471,3.960480
[MO833] Paramount Iteration,2,40,0.208173,3.960811
[MO833] Paramount Iteration,6,40,0.208053,3.960588
[MO833] Paramount Iteration,13,40,0.208396,3.960681
[MO833] Paramount Iteration,5,40,0.208306,3.960798
[MO833] Paramount Iteration,11,40,0.207668,3.960637
[MO833] Paramount Iteration,12,40,0.208145,3.960899
[MO833] Paramount Iteration,14,40,0.208091,3.960916
[MO833] Paramount Iteration,0,40,0.207832,3.960952
[MO833] Paramount Iteration,10,40,0.208056,3.960969
[MO833] Paramount Iteration,9,40,0.208408,3.961073
[MO833] Paramount Iteration,8,40,0.207979,3.961193
[MO833] Paramount Iteration,1,40,0.208368,3.961569
[MO833] Paramount Iteration,2,41,0.045997,4.006842
[MO833] Paramount Iteration,13,41,0.045844,4.006629
[MO833] Paramount Iteration,3,41,0.046279,4.006838
[MO833] Paramount Iteration,4,41,0.046346,4.006891
[MO833] Paramount Iteration,6,41,0.046183,4.006808
[MO833] Paramount Iteration,7,41,0.046465,4.006804
[MO833] Paramount Iteration,5,41,0.046234,4.007069
[MO833] Paramount Iteration,12,41,0.046236,4.007166
[MO833] Paramount Iteration,9,41,0.045962,4.007069
[MO833] Paramount Iteration,0,41,0.046199,4.007221
[MO833] Paramount Iteration,10,41,0.046307,4.007300
[MO833] Paramount Iteration,11,41,0.046575,4.007294
[MO833] Paramount Iteration,14,41,0.046489,4.007427
[MO833] Paramount Iteration,15,41,0.046879,4.007437
[MO833] Paramount Iteration,1,41,0.045968,4.007559
[MO833] Paramount Iteration,8,41,0.046314,4.007541
[MO833] Paramount Iteration,3,42,0.045568,4.052430
[MO833] Paramount Iteration,13,42,0.045561,4.052282
[MO833] Paramount Iteration,7,42,0.045562,4.052389
[MO833] Paramount Iteration,2,42,0.045877,4.052785
[MO833] Paramount Iteration,4,42,0.045710,4.052630
[MO833] Paramount Iteration,6,42,0.045719,4.052585
[MO833] Paramount Iteration,15,42,0.045021,4.052534
[MO833] Paramount Iteration,5,42,0.045621,4.052725
[MO833] Paramount Iteration,14,42,0.045128,4.052579
[MO833] Paramount Iteration,11,42,0.045235,4.052611
[MO833] Paramount Iteration,12,42,0.045623,4.052811
[MO833] Paramount Iteration,9,42,0.045665,4.052771
[MO833] Paramount Iteration,10,42,0.045537,4.052846
[MO833] Paramount Iteration,0,42,0.045877,4.053162
[MO833] Paramount Iteration,8,42,0.045612,4.053203
[MO833] Paramount Iteration,1,42,0.045928,4.053506
[MO833] Paramount Iteration,3,43,0.045447,4.097904
[MO833] Paramount Iteration,7,43,0.045561,4.097981
[MO833] Paramount Iteration,15,43,0.045338,4.097949
[MO833] Paramount Iteration,11,43,0.045280,4.097972
[MO833] Paramount Iteration,2,43,0.045651,4.098467
[MO833] Paramount Iteration,4,43,0.045631,4.098291
[MO833] Paramount Iteration,5,43,0.045887,4.098646
[MO833] Paramount Iteration,6,43,0.045939,4.098561
[MO833] Paramount Iteration,13,43,0.046278,4.098652
[MO833] Paramount Iteration,12,43,0.045849,4.098681
[MO833] Paramount Iteration,14,43,0.046059,4.098647
[MO833] Paramount Iteration,0,43,0.045427,4.098652
[MO833] Paramount Iteration,8,43,0.045406,4.098655
[MO833] Paramount Iteration,10,43,0.045884,4.098753
[MO833] Paramount Iteration,9,43,0.046187,4.098992
[MO833] Paramount Iteration,1,43,0.045838,4.099363
[MO833] Paramount Iteration,3,44,0.209104,4.307033
[MO833] Paramount Iteration,7,44,0.208970,4.306982
[MO833] Paramount Iteration,2,44,0.208819,4.307320
[MO833] Paramount Iteration,4,44,0.208832,4.307152
[MO833] Paramount Iteration,13,44,0.208385,4.307132
[MO833] Paramount Iteration,15,44,0.209119,4.307145
[MO833] Paramount Iteration,6,44,0.208633,4.307234
[MO833] Paramount Iteration,5,44,0.208697,4.307380
[MO833] Paramount Iteration,12,44,0.208745,4.307435
[MO833] Paramount Iteration,11,44,0.209236,4.307290
[MO833] Paramount Iteration,14,44,0.208815,4.307486
[MO833] Paramount Iteration,9,44,0.208507,4.307521
[MO833] Paramount Iteration,10,44,0.208784,4.307562
[MO833] Paramount Iteration,8,44,0.208993,4.307729
[MO833] Paramount Iteration,0,44,0.209093,4.307816
[MO833] Paramount Iteration,1,44,0.209004,4.308388
[MO833] Paramount Iteration,3,45,0.045871,4.352932
[MO833] Paramount Iteration,7,45,0.045876,4.352887
[MO833] Paramount Iteration,13,45,0.045682,4.352895
[MO833] Paramount Iteration,2,45,0.045825,4.353180
[MO833] Paramount Iteration,15,45,0.045756,4.352975
[MO833] Paramount Iteration,4,45,0.045990,4.353170
[MO833] Paramount Iteration,6,45,0.045853,4.353121
[MO833] Paramount Iteration,11,45,0.045644,4.353017
[MO833] Paramount Iteration,5,45,0.045854,4.353265
[MO833] Paramount Iteration,12,45,0.045795,4.353249
[MO833] Paramount Iteration,14,45,0.045764,4.353271
[MO833] Paramount Iteration,10,45,0.045652,4.353236
[MO833] Paramount Iteration,9,45,0.045698,4.353252
[MO833] Paramount Iteration,8,45,0.045758,4.353525
[MO833] Paramount Iteration,0,45,0.045735,4.353616
[MO833] Paramount Iteration,1,45,0.045589,4.354052
[MO833] Paramount Iteration,3,46,0.045442,4.398399
[MO833] Paramount Iteration,7,46,0.045280,4.398194
[MO833] Paramount Iteration,4,46,0.045227,4.398424
[MO833] Paramount Iteration,13,46,0.045551,4.398521
[MO833] Paramount Iteration,15,46,0.045473,4.398522
[MO833] Paramount Iteration,5,46,0.045431,4.398723
[MO833] Paramount Iteration,2,46,0.045651,4.398864
[MO833] Paramount Iteration,6,46,0.045559,4.398716
[MO833] Paramount Iteration,11,46,0.045515,4.398606
[MO833] Paramount Iteration,12,46,0.045644,4.398913
[MO833] Paramount Iteration,14,46,0.045686,4.398978
[MO833] Paramount Iteration,0,46,0.045355,4.399031
[MO833] Paramount Iteration,10,46,0.045836,4.399093
[MO833] Paramount Iteration,9,46,0.045844,4.399131
[MO833] Paramount Iteration,8,46,0.045632,4.399200
[MO833] Paramount Iteration,1,46,0.045416,4.399538
[MO833] Paramount Iteration,3,47,0.044893,4.443345
[MO833] Paramount Iteration,7,47,0.045007,4.443231
[MO833] Paramount Iteration,15,47,0.044916,4.443515
[MO833] Paramount Iteration,11,47,0.044784,4.443476
[MO833] Paramount Iteration,2,47,0.044944,4.443826
[MO833] Paramount Iteration,4,47,0.045298,4.443748
[MO833] Paramount Iteration,6,47,0.044957,4.443714
[MO833] Paramount Iteration,13,47,0.045148,4.443756
[MO833] Paramount Iteration,5,47,0.045217,4.443974
[MO833] Paramount Iteration,14,47,0.044916,4.443916
[MO833] Paramount Iteration,10,47,0.044802,4.443920
[MO833] Paramount Iteration,12,47,0.045143,4.444076
[MO833] Paramount Iteration,9,47,0.044905,4.444117
[MO833] Paramount Iteration,0,47,0.045138,4.444231
[MO833] Paramount Iteration,8,47,0.044965,4.444194
[MO833] Paramount Iteration,1,47,0.045056,4.444670
[MO833] Paramount Iteration,3,48,0.208049,4.651449
[MO833] Paramount Iteration,7,48,0.208071,4.651331
[MO833] Paramount Iteration,15,48,0.207924,4.651517
[MO833] Paramount Iteration,11,48,0.207915,4.651464
[MO833] Paramount Iteration,2,48,0.208038,4.651883
[MO833] Paramount Iteration,6,48,0.207950,4.651702
[MO833] Paramount Iteration,13,48,0.207912,4.651758
[MO833] Paramount Iteration,4,48,0.208049,4.651823
[MO833] Paramount Iteration,14,48,0.207953,4.651892
[MO833] Paramount Iteration,5,48,0.208053,4.652057
[MO833] Paramount Iteration,10,48,0.207943,4.651886
[MO833] Paramount Iteration,12,48,0.207964,4.652061
[MO833] Paramount Iteration,0,48,0.207913,4.652203
[MO833] Paramount Iteration,8,48,0.208022,4.652259
[MO833] Paramount Iteration,9,48,0.208155,4.652380
[MO833] Paramount Iteration,1,48,0.208166,4.652909
[MO833] Paramount Iteration,3,49,0.045660,4.697170
[MO833] Paramount Iteration,7,49,0.045826,4.697185
[MO833] Paramount Iteration,11,49,0.045815,4.697353
[MO833] Paramount Iteration,2,49,0.045913,4.697815
[MO833] Paramount Iteration,4,49,0.045894,4.697747
[MO833] Paramount Iteration,15,49,0.046093,4.697679
[MO833] Paramount Iteration,6,49,0.046027,4.697768
[MO833] Paramount Iteration,13,49,0.046094,4.697937
[MO833] Paramount Iteration,10,49,0.045983,4.697891
[MO833] Paramount Iteration,5,49,0.046021,4.698113
[MO833] Paramount Iteration,12,49,0.046056,4.698137
[MO833] Paramount Iteration,14,49,0.046254,4.698166
[MO833] Paramount Iteration,0,49,0.045936,4.698200
[MO833] Paramount Iteration,8,49,0.045904,4.698243
[MO833] Paramount Iteration,9,49,0.045937,4.698379
[MO833] Paramount Iteration,1,49,0.046124,4.699108
[MO833] Paramount Iteration,3,50,0.046583,4.743831
[MO833] Paramount Iteration,7,50,0.046478,4.743692
[MO833] Paramount Iteration,2,50,0.046415,4.744250
[MO833] Paramount Iteration,13,50,0.046066,4.744072
[MO833] Paramount Iteration,11,50,0.046487,4.743912
[MO833] Paramount Iteration,4,50,0.046364,4.744137
[MO833] Paramount Iteration,15,50,0.046354,4.744108
[MO833] Paramount Iteration,6,50,0.046395,4.744203
[MO833] Paramount Iteration,5,50,0.046227,4.744376
[MO833] Paramount Iteration,12,50,0.046325,4.744482
[MO833] Paramount Iteration,10,50,0.046408,4.744321
[MO833] Paramount Iteration,14,50,0.046371,4.744560
[MO833] Paramount Iteration,9,50,0.046189,4.744615
[MO833] Paramount Iteration,0,50,0.046475,4.744744
[MO833] Paramount Iteration,8,50,0.046425,4.744754
[MO833] Paramount Iteration,1,50,0.046043,4.745225
[MO833] Paramount Iteration,3,51,0.045721,4.789608
[MO833] Paramount Iteration,13,51,0.045219,4.789379
[MO833] Paramount Iteration,7,51,0.045708,4.789429
[MO833] Paramount Iteration,15,51,0.045370,4.789550
[MO833] Paramount Iteration,2,51,0.045591,4.789860
[MO833] Paramount Iteration,11,51,0.045557,4.789542
[MO833] Paramount Iteration,5,51,0.045367,4.789779
[MO833] Paramount Iteration,4,51,0.045630,4.789794
[MO833] Paramount Iteration,6,51,0.045494,4.789733
[MO833] Paramount Iteration,12,51,0.045434,4.789936
[MO833] Paramount Iteration,14,51,0.045295,4.789876
[MO833] Paramount Iteration,10,51,0.045464,4.789806
[MO833] Paramount Iteration,9,51,0.045236,4.789971
[MO833] Paramount Iteration,0,51,0.045546,4.790354
[MO833] Paramount Iteration,8,51,0.045455,4.790298
[MO833] Paramount Iteration,1,51,0.045285,4.790577
[MO833] Paramount Iteration,3,52,0.209564,4.999226
[MO833] Paramount Iteration,7,52,0.209510,4.998967
[MO833] Paramount Iteration,13,52,0.209534,4.998997
[MO833] Paramount Iteration,15,52,0.209489,4.999111
[MO833] Paramount Iteration,11,52,0.209364,4.998992
[MO833] Paramount Iteration,2,52,0.209581,4.999459
[MO833] Paramount Iteration,4,52,0.209551,4.999353
[MO833] Paramount Iteration,6,52,0.209487,4.999266
[MO833] Paramount Iteration,5,52,0.209605,4.999462
[MO833] Paramount Iteration,10,52,0.209448,4.999275
[MO833] Paramount Iteration,9,52,0.209260,4.999329
[MO833] Paramount Iteration,14,52,0.209558,4.999455
[MO833] Paramount Iteration,12,52,0.209591,4.999548
[MO833] Paramount Iteration,8,52,0.209300,4.999622
[MO833] Paramount Iteration,0,52,0.209520,4.999936
[MO833] Paramount Iteration,1,52,0.209552,5.000196
[MO833] Paramount Iteration,3,53,0.045658,5.044946
[MO833] Paramount Iteration,15,53,0.045680,5.044857
[MO833] Paramount Iteration,7,53,0.045938,5.044934
[MO833] Paramount Iteration,13,53,0.045890,5.044973
[MO833] Paramount Iteration,2,53,0.045813,5.045289
[MO833] Paramount Iteration,11,53,0.045901,5.044963
[MO833] Paramount Iteration,4,53,0.045824,5.045204
[MO833] Paramount Iteration,6,53,0.045940,5.045245
[MO833] Paramount Iteration,14,53,0.045753,5.045226
[MO833] Paramount Iteration,5,53,0.045881,5.045390
[MO833] Paramount Iteration,12,53,0.045768,5.045337
[MO833] Paramount Iteration,9,53,0.045826,5.045252
[MO833] Paramount Iteration,10,53,0.046000,5.045295
[MO833] Paramount Iteration,8,53,0.045772,5.045415
[MO833] Paramount Iteration,0,53,0.045856,5.045854
[MO833] Paramount Iteration,1,53,0.045989,5.046254
[MO833] Paramount Iteration,3,54,0.045720,5.090719
[MO833] Paramount Iteration,7,54,0.045621,5.090582
[MO833] Paramount Iteration,15,54,0.045703,5.090629
[MO833] Paramount Iteration,11,54,0.045455,5.090490
[MO833] Paramount Iteration,4,54,0.045745,5.090977
[MO833] Paramount Iteration,2,54,0.046019,5.091326
[MO833] Paramount Iteration,6,54,0.045939,5.091223
[MO833] Paramount Iteration,8,54,0.045673,5.091107
[MO833] Paramount Iteration,0,54,0.045328,5.091246
[MO833] Paramount Iteration,5,54,0.046034,5.091455
[MO833] Paramount Iteration,12,54,0.046020,5.091378
[MO833] Paramount Iteration,14,54,0.046148,5.091394
[MO833] Paramount Iteration,10,54,0.046017,5.091333
[MO833] Paramount Iteration,13,54,0.046457,5.091511
[MO833] Paramount Iteration,9,54,0.046243,5.091589
[MO833] Paramount Iteration,1,54,0.045844,5.092167
[MO833] Paramount Iteration,13,55,0.044057,5.135604
[MO833] Paramount Iteration,3,55,0.045160,5.135932
[MO833] Paramount Iteration,2,55,0.044666,5.136011
[MO833] Paramount Iteration,5,55,0.044576,5.136067
[MO833] Paramount Iteration,9,55,0.044288,5.135921
[MO833] Paramount Iteration,4,55,0.045113,5.136118
[MO833] Paramount Iteration,7,55,0.045436,5.136046
[MO833] Paramount Iteration,15,55,0.045430,5.136128
[MO833] Paramount Iteration,6,55,0.044936,5.136198
[MO833] Paramount Iteration,14,55,0.044828,5.136242
[MO833] Paramount Iteration,10,55,0.044801,5.136155
[MO833] Paramount Iteration,12,55,0.044892,5.136302
[MO833] Paramount Iteration,11,55,0.045588,5.136147
[MO833] Paramount Iteration,8,55,0.045299,5.136437
[MO833] Paramount Iteration,0,55,0.045242,5.136555
[MO833] Paramount Iteration,1,55,0.044450,5.136687
[MO833] Paramount Iteration,3,56,0.207212,5.343197
[MO833] Paramount Iteration,7,56,0.206994,5.343067
[MO833] Paramount Iteration,4,56,0.207297,5.343430
[MO833] Paramount Iteration,15,56,0.207129,5.343335
[MO833] Paramount Iteration,11,56,0.207089,5.343308
[MO833] Paramount Iteration,2,56,0.207736,5.343762
[MO833] Paramount Iteration,13,56,0.207928,5.343652
[MO833] Paramount Iteration,8,56,0.207088,5.343544
[MO833] Paramount Iteration,12,56,0.207371,5.343696
[MO833] Paramount Iteration,5,56,0.207684,5.343843
[MO833] Paramount Iteration,6,56,0.207522,5.343755
[MO833] Paramount Iteration,10,56,0.207554,5.343718
[MO833] Paramount Iteration,9,56,0.207739,5.343762
[MO833] Paramount Iteration,0,56,0.207204,5.343821
[MO833] Paramount Iteration,14,56,0.207666,5.343927
[MO833] Paramount Iteration,1,56,0.207799,5.344556
[MO833] Paramount Iteration,13,57,0.045160,5.388898
[MO833] Paramount Iteration,3,57,0.045941,5.389195
[MO833] Paramount Iteration,2,57,0.045484,5.389265
[MO833] Paramount Iteration,7,57,0.045998,5.389093
[MO833] Paramount Iteration,4,57,0.045794,5.389255
[MO833] Paramount Iteration,5,57,0.045401,5.389284
[MO833] Paramount Iteration,6,57,0.045407,5.389204
[MO833] Paramount Iteration,11,57,0.045787,5.389161
[MO833] Paramount Iteration,10,57,0.045472,5.389209
[MO833] Paramount Iteration,15,57,0.045845,5.389272
[MO833] Paramount Iteration,12,57,0.045667,5.389372
[MO833] Paramount Iteration,9,57,0.045598,5.389395
[MO833] Paramount Iteration,14,57,0.045524,5.389474
[MO833] Paramount Iteration,8,57,0.045987,5.389560
[MO833] Paramount Iteration,0,57,0.045885,5.389778
[MO833] Paramount Iteration,1,57,0.045516,5.390143
[MO833] Paramount Iteration,15,58,0.044987,5.434337
[MO833] Paramount Iteration,3,58,0.045427,5.434676
[MO833] Paramount Iteration,7,58,0.045400,5.434521
[MO833] Paramount Iteration,11,58,0.045242,5.434470
[MO833] Paramount Iteration,4,58,0.045670,5.434954
[MO833] Paramount Iteration,13,58,0.045987,5.434970
[MO833] Paramount Iteration,2,58,0.045903,5.435188
[MO833] Paramount Iteration,12,58,0.045650,5.435042
[MO833] Paramount Iteration,5,58,0.045908,5.435284
[MO833] Paramount Iteration,6,58,0.045921,5.435159
[MO833] Paramount Iteration,8,58,0.045566,5.435145
[MO833] Paramount Iteration,10,58,0.045954,5.435199
[MO833] Paramount Iteration,14,58,0.045807,5.435302
[MO833] Paramount Iteration,9,58,0.045869,5.435358
[MO833] Paramount Iteration,0,58,0.045596,5.435437
[MO833] Paramount Iteration,1,58,0.045942,5.436153
[MO833] Paramount Iteration,3,59,0.045860,5.480593
[MO833] Paramount Iteration,7,59,0.045919,5.480523
[MO833] Paramount Iteration,15,59,0.046183,5.480589
[MO833] Paramount Iteration,11,59,0.046001,5.480545
[MO833] Paramount Iteration,4,59,0.045940,5.480922
[MO833] Paramount Iteration,2,59,0.045879,5.481086
[MO833] Paramount Iteration,13,59,0.045903,5.480954
[MO833] Paramount Iteration,6,59,0.045786,5.480966
[MO833] Paramount Iteration,8,59,0.045698,5.480920
[MO833] Paramount Iteration,12,59,0.046058,5.481135
[MO833] Paramount Iteration,5,59,0.045939,5.481259
[MO833] Paramount Iteration,14,59,0.045835,5.481162
[MO833] Paramount Iteration,10,59,0.045800,5.481073
[MO833] Paramount Iteration,0,59,0.045687,5.481189
[MO833] Paramount Iteration,9,59,0.045806,5.481209
[MO833] Paramount Iteration,1,59,0.045677,5.481925
[MO833] Paramount Iteration,3,60,0.205723,5.686370
[MO833] Paramount Iteration,7,60,0.205985,5.686584
[MO833] Paramount Iteration,2,60,0.205764,5.686869
[MO833] Paramount Iteration,4,60,0.205778,5.686730
[MO833] Paramount Iteration,11,60,0.206045,5.686664
[MO833] Paramount Iteration,15,60,0.206134,5.686797
[MO833] Paramount Iteration,6,60,0.205897,5.686894
[MO833] Paramount Iteration,13,60,0.205887,5.686922
[MO833] Paramount Iteration,12,60,0.205798,5.686976
[MO833] Paramount Iteration,5,60,0.205785,5.687080
[MO833] Paramount Iteration,0,60,0.205844,5.687108
[MO833] Paramount Iteration,8,60,0.206113,5.687104
[MO833] Paramount Iteration,14,60,0.206073,5.687257
[MO833] Paramount Iteration,9,60,0.205981,5.687247
[MO833] Paramount Iteration,10,60,0.206070,5.687189
[MO833] Paramount Iteration,1,60,0.205749,5.687747
[MO833] Paramount Iteration,3,61,0.044938,5.731369
[MO833] Paramount Iteration,2,61,0.044815,5.731704
[MO833] Paramount Iteration,4,61,0.044889,5.731646
[MO833] Paramount Iteration,7,61,0.044857,5.731520
[MO833] Paramount Iteration,15,61,0.044678,5.731552
[MO833] Paramount Iteration,13,61,0.044678,5.731682
[MO833] Paramount Iteration,6,61,0.044818,5.731732
[MO833] Paramount Iteration,11,61,0.044978,5.731673
[MO833] Paramount Iteration,5,61,0.044791,5.731906
[MO833] Paramount Iteration,0,61,0.044614,5.731781
[MO833] Paramount Iteration,14,61,0.044618,5.731898
[MO833] Paramount Iteration,9,61,0.044544,5.731833
[MO833] Paramount Iteration,8,61,0.044735,5.731912
[MO833] Paramount Iteration,12,61,0.045001,5.732010
[MO833] Paramount Iteration,10,61,0.044775,5.732037
[MO833] Paramount Iteration,1,61,0.044304,5.732117
[MO833] Paramount Iteration,3,62,0.043170,5.774594
[MO833] Paramount Iteration,7,62,0.043095,5.774681
[MO833] Paramount Iteration,11,62,0.042876,5.774579
[MO833] Paramount Iteration,15,62,0.043185,5.774807
[MO833] Paramount Iteration,4,62,0.043242,5.774948
[MO833] Paramount Iteration,2,62,0.043397,5.775118
[MO833] Paramount Iteration,8,62,0.042963,5.774909
[MO833] Paramount Iteration,13,62,0.043303,5.775076
[MO833] Paramount Iteration,12,62,0.043049,5.775107
[MO833] Paramount Iteration,6,62,0.043353,5.775129
[MO833] Paramount Iteration,5,62,0.043356,5.775312
[MO833] Paramount Iteration,0,62,0.043341,5.775181
[MO833] Paramount Iteration,14,62,0.043430,5.775373
[MO833] Paramount Iteration,10,62,0.043193,5.775272
[MO833] Paramount Iteration,9,62,0.043404,5.775326
[MO833] Paramount Iteration,1,62,0.043816,5.776043
[MO833] Paramount Iteration,3,63,0.044840,5.819489
[MO833] Paramount Iteration,7,63,0.044493,5.819249
[MO833] Paramount Iteration,4,63,0.044521,5.819531
[MO833] Paramount Iteration,15,63,0.044710,5.819591
[MO833] Paramount Iteration,2,63,0.044770,5.819906
[MO833] Paramount Iteration,5,63,0.044461,5.819826
[MO833] Paramount Iteration,6,63,0.044564,5.819739
[MO833] Paramount Iteration,13,63,0.044629,5.819793
[MO833] Paramount Iteration,11,63,0.045022,5.819632
[MO833] Paramount Iteration,12,63,0.044708,5.819824
[MO833] Paramount Iteration,0,63,0.044661,5.819896
[MO833] Paramount Iteration,14,63,0.044607,5.820025
[MO833] Paramount Iteration,8,63,0.045094,5.820072
[MO833] Paramount Iteration,10,63,0.044778,5.820094
[MO833] Paramount Iteration,9,63,0.044737,5.820109
[MO833] Paramount Iteration,1,63,0.044405,5.820517
[MO833] Paramount Iteration,13,64,0.202065,6.021945
[MO833] Paramount Iteration,3,64,0.202732,6.022271
[MO833] Paramount Iteration,4,64,0.202628,6.022223
[MO833] Paramount Iteration,5,64,0.202413,6.022290
[MO833] Paramount Iteration,2,64,0.202478,6.022403
[MO833] Paramount Iteration,6,64,0.202453,6.022265
[MO833] Paramount Iteration,7,64,0.202939,6.022268
[MO833] Paramount Iteration,12,64,0.202501,6.022334
[MO833] Paramount Iteration,11,64,0.202552,6.022215
[MO833] Paramount Iteration,9,64,0.202222,6.022339
[MO833] Paramount Iteration,14,64,0.202334,6.022404
[MO833] Paramount Iteration,8,64,0.202260,6.022407
[MO833] Paramount Iteration,15,64,0.202742,6.022406
[MO833] Paramount Iteration,0,64,0.202533,6.022489
[MO833] Paramount Iteration,10,64,0.202432,6.022569
[MO833] Paramount Iteration,1,64,0.202271,6.022856
[MO833] Paramount Iteration,3,65,0.043765,6.066101
[MO833] Paramount Iteration,7,65,0.044069,6.066356
[MO833] Paramount Iteration,2,65,0.044186,6.066620
[MO833] Paramount Iteration,13,65,0.044634,6.066657
[MO833] Paramount Iteration,11,65,0.044288,6.066535
[MO833] Paramount Iteration,6,65,0.044398,6.066727
[MO833] Paramount Iteration,15,65,0.044326,6.066756
[MO833] Paramount Iteration,4,65,0.044616,6.066902
[MO833] Paramount Iteration,5,65,0.044678,6.067025
[MO833] Paramount Iteration,12,65,0.044649,6.067003
[MO833] Paramount Iteration,10,65,0.044392,6.067003
[MO833] Paramount Iteration,9,65,0.044583,6.067014
[MO833] Paramount Iteration,14,65,0.044621,6.067122
[MO833] Paramount Iteration,8,65,0.044663,6.067106
[MO833] Paramount Iteration,0,65,0.044653,6.067207
[MO833] Paramount Iteration,1,65,0.044848,6.067769
[MO833] Paramount Iteration,3,66,0.045687,6.111843
[MO833] Paramount Iteration,7,66,0.045256,6.111692
[MO833] Paramount Iteration,15,66,0.044809,6.111637
[MO833] Paramount Iteration,11,66,0.045099,6.111668
[MO833] Paramount Iteration,2,66,0.045703,6.112343
[MO833] Paramount Iteration,4,66,0.045246,6.112208
[MO833] Paramount Iteration,13,66,0.045501,6.112222
[MO833] Paramount Iteration,12,66,0.045283,6.112306
[MO833] Paramount Iteration,6,66,0.045528,6.112300
[MO833] Paramount Iteration,5,66,0.045386,6.112464
[MO833] Paramount Iteration,8,66,0.045123,6.112264
[MO833] Paramount Iteration,14,66,0.045278,6.112446
[MO833] Paramount Iteration,10,66,0.045401,6.112447
[MO833] Paramount Iteration,0,66,0.045284,6.112553
[MO833] Paramount Iteration,9,66,0.045481,6.112591
[MO833] Paramount Iteration,1,66,0.045485,6.113322
[MO833] Paramount Iteration,3,67,0.206713,6.318611
[MO833] Paramount Iteration,4,67,0.206210,6.318480
[MO833] Paramount Iteration,13,67,0.206175,6.318483
[MO833] Paramount Iteration,7,67,0.206724,6.318487
[MO833] Paramount Iteration,6,67,0.206268,6.318611
[MO833] Paramount Iteration,2,67,0.206478,6.318840
[MO833] Paramount Iteration,5,67,0.206223,6.318739
[MO833] Paramount Iteration,11,67,0.206869,6.318566
[MO833] Paramount Iteration,15,67,0.206956,6.318668
[MO833] Paramount Iteration,12,67,0.206477,6.318800
[MO833] Paramount Iteration,0,67,0.206207,6.318820
[MO833] Paramount Iteration,9,67,0.206145,6.318794
[MO833] Paramount Iteration,14,67,0.206398,6.318903
[MO833] Paramount Iteration,10,67,0.206373,6.318864
[MO833] Paramount Iteration,8,67,0.206582,6.318919
[MO833] Paramount Iteration,1,67,0.205857,6.319250
[MO833] Paramount Iteration,3,68,0.044761,6.363435
[MO833] Paramount Iteration,4,68,0.045014,6.363552
[MO833] Paramount Iteration,2,68,0.044861,6.363719
[MO833] Paramount Iteration,13,68,0.044976,6.363542
[MO833] Paramount Iteration,5,68,0.044914,6.363690
[MO833] Paramount Iteration,7,68,0.044930,6.363532
[MO833] Paramount Iteration,11,68,0.044921,6.363517
[MO833] Paramount Iteration,15,68,0.044906,6.363654
[MO833] Paramount Iteration,6,68,0.045127,6.363776
[MO833] Paramount Iteration,12,68,0.045081,6.363902
[MO833] Paramount Iteration,9,68,0.044967,6.363856
[MO833] Paramount Iteration,10,68,0.044993,6.363897
[MO833] Paramount Iteration,8,68,0.044921,6.363917
[MO833] Paramount Iteration,14,68,0.045074,6.364021
[MO833] Paramount Iteration,0,68,0.045159,6.364037
[MO833] Paramount Iteration,1,68,0.045241,6.364577
[MO833] Paramount Iteration,3,69,0.045366,6.408858
[MO833] Paramount Iteration,4,69,0.045244,6.408854
[MO833] Paramount Iteration,7,69,0.045251,6.408862
[MO833] Paramount Iteration,12,69,0.045196,6.409118
[MO833] Paramount Iteration,11,69,0.045402,6.408947
[MO833] Paramount Iteration,2,69,0.045573,6.409310
[MO833] Paramount Iteration,13,69,0.045494,6.409114
[MO833] Paramount Iteration,5,69,0.045544,6.409296
[MO833] Paramount Iteration,6,69,0.045398,6.409217
[MO833] Paramount Iteration,15,69,0.045505,6.409235
[MO833] Paramount Iteration,8,69,0.045324,6.409250
[MO833] Paramount Iteration,0,69,0.045334,6.409449
[MO833] Paramount Iteration,14,69,0.045435,6.409517
[MO833] Paramount Iteration,10,69,0.045549,6.409485
[MO833] Paramount Iteration,9,69,0.045612,6.409609
[MO833] Paramount Iteration,1,69,0.045673,6.410318
[MO833] Paramount Iteration,3,70,0.046031,6.454945
[MO833] Paramount Iteration,7,70,0.045886,6.454824
[MO833] Paramount Iteration,13,70,0.045751,6.454939
[MO833] Paramount Iteration,4,70,0.046187,6.455098
[MO833] Paramount Iteration,2,70,0.045910,6.455239
[MO833] Paramount Iteration,15,70,0.045761,6.455072
[MO833] Paramount Iteration,11,70,0.046027,6.455005
[MO833] Paramount Iteration,12,70,0.046055,6.455185
[MO833] Paramount Iteration,6,70,0.045907,6.455169
[MO833] Paramount Iteration,5,70,0.045996,6.455311
[MO833] Paramount Iteration,14,70,0.045952,6.455515
[MO833] Paramount Iteration,8,70,0.046113,6.455445
[MO833] Paramount Iteration,10,70,0.045939,6.455468
[MO833] Paramount Iteration,0,70,0.046079,6.455590
[MO833] Paramount Iteration,9,70,0.045945,6.455602
[MO833] Paramount Iteration,1,70,0.045879,6.456272
[MO833] Paramount Iteration,13,71,0.209454,6.664469
[MO833] Paramount Iteration,3,71,0.209674,6.664674
[MO833] Paramount Iteration,4,71,0.209530,6.664685
[MO833] Paramount Iteration,7,71,0.209700,6.664588
[MO833] Paramount Iteration,15,71,0.209447,6.664594
[MO833] Paramount Iteration,2,71,0.209676,6.664934
[MO833] Paramount Iteration,5,71,0.209490,6.664851
[MO833] Paramount Iteration,6,71,0.209569,6.664783
[MO833] Paramount Iteration,12,71,0.209660,6.664865
[MO833] Paramount Iteration,14,71,0.209310,6.664868
[MO833] Paramount Iteration,11,71,0.209699,6.664779
[MO833] Paramount Iteration,10,71,0.209553,6.665068
[MO833] Paramount Iteration,0,71,0.209588,6.665244
[MO833] Paramount Iteration,8,71,0.209752,6.665274
[MO833] Paramount Iteration,9,71,0.209585,6.665244
[MO833] Paramount Iteration,1,71,0.209369,6.665720
[MO833] Paramount Iteration,13,72,0.046468,6.711016
[MO833] Paramount Iteration,5,72,0.046281,6.711172
[MO833] Paramount Iteration,2,72,0.046382,6.711335
[MO833] Paramount Iteration,3,72,0.046675,6.711408
[MO833] Paramount Iteration,4,72,0.046610,6.711358
[MO833] Paramount Iteration,6,72,0.046539,6.711343
[MO833] Paramount Iteration,7,72,0.046885,6.711554
[MO833] Paramount Iteration,9,72,0.046066,6.711428
[MO833] Paramount Iteration,12,72,0.046764,6.711648
[MO833] Paramount Iteration,14,72,0.046655,6.711567
[MO833] Paramount Iteration,10,72,0.046347,6.711499
[MO833] Paramount Iteration,11,72,0.046707,6.711567
[MO833] Paramount Iteration,15,72,0.047028,6.711692
[MO833] Paramount Iteration,0,72,0.046530,6.711830
[MO833] Paramount Iteration,8,72,0.046536,6.711818
[MO833] Paramount Iteration,1,72,0.046209,6.711997
[MO833] Paramount Iteration,13,73,0.045996,6.757094
[MO833] Paramount Iteration,2,73,0.045940,6.757300
[MO833] Paramount Iteration,5,73,0.045994,6.757252
[MO833] Paramount Iteration,3,73,0.045872,6.757305
[MO833] Paramount Iteration,4,73,0.045956,6.757359
[MO833] Paramount Iteration,6,73,0.046126,6.757499
[MO833] Paramount Iteration,11,73,0.045847,6.757423
[MO833] Paramount Iteration,7,73,0.045900,6.757493
[MO833] Paramount Iteration,10,73,0.045854,6.757460
[MO833] Paramount Iteration,9,73,0.045966,6.757498
[MO833] Paramount Iteration,12,73,0.045995,6.757663
[MO833] Paramount Iteration,14,73,0.046127,6.757763
[MO833] Paramount Iteration,15,73,0.046037,6.757774
[MO833] Paramount Iteration,1,73,0.045809,6.757869
[MO833] Paramount Iteration,0,73,0.046018,6.757909
[MO833] Paramount Iteration,8,73,0.046082,6.757952
[MO833] Paramount Iteration,3,74,0.207566,6.964929
[MO833] Paramount Iteration,2,74,0.207941,6.965265
[MO833] Paramount Iteration,4,74,0.207756,6.965156
[MO833] Paramount Iteration,7,74,0.207558,6.965076
[MO833] Paramount Iteration,13,74,0.207956,6.965131
[MO833] Paramount Iteration,11,74,0.207504,6.965009
[MO833] Paramount Iteration,12,74,0.207593,6.965277
[MO833] Paramount Iteration,6,74,0.207702,6.965264
[MO833] Paramount Iteration,15,74,0.207397,6.965246
[MO833] Paramount Iteration,5,74,0.208120,6.965433
[MO833] Paramount Iteration,10,74,0.207832,6.965302
[MO833] Paramount Iteration,8,74,0.207331,6.965336
[MO833] Paramount Iteration,9,74,0.207829,6.965428
[MO833] Paramount Iteration,0,74,0.207579,6.965497
[MO833] Paramount Iteration,14,74,0.207821,6.965611
[MO833] Paramount Iteration,1,74,0.208109,6.966071
[MO833] Paramount Iteration,3,75,0.044987,7.009978
[MO833] Paramount Iteration,7,75,0.044804,7.009945
[MO833] Paramount Iteration,4,75,0.044900,7.010118
[MO833] Paramount Iteration,2,75,0.045232,7.010515
[MO833] Paramount Iteration,15,75,0.044995,7.010319
[MO833] Paramount Iteration,11,75,0.045166,7.010250
[MO833] Paramount Iteration,5,75,0.045042,7.010529
[MO833] Paramount Iteration,12,75,0.045150,7.010464
[MO833] Paramount Iteration,6,75,0.045144,7.010452
[MO833] Paramount Iteration,13,75,0.045270,7.010483
[MO833] Paramount Iteration,8,75,0.045201,7.010609
[MO833] Paramount Iteration,10,75,0.045327,7.010688
[MO833] Paramount Iteration,0,75,0.045217,7.010778
[MO833] Paramount Iteration,14,75,0.045161,7.010833
[MO833] Paramount Iteration,9,75,0.045372,7.010854
[MO833] Paramount Iteration,1,75,0.045401,7.011540
[MO833] Paramount Iteration,13,76,0.045647,7.056199
[MO833] Paramount Iteration,2,76,0.045972,7.056506
[MO833] Paramount Iteration,3,76,0.046559,7.056592
[MO833] Paramount Iteration,4,76,0.046353,7.056531
[MO833] Paramount Iteration,5,76,0.045952,7.056524
[MO833] Paramount Iteration,6,76,0.045993,7.056492
[MO833] Paramount Iteration,7,76,0.046624,7.056649
[MO833] Paramount Iteration,12,76,0.046210,7.056703
[MO833] Paramount Iteration,9,76,0.045690,7.056602
[MO833] Paramount Iteration,14,76,0.045835,7.056726
[MO833] Paramount Iteration,10,76,0.045976,7.056723
[MO833] Paramount Iteration,11,76,0.046394,7.056720
[MO833] Paramount Iteration,15,76,0.046532,7.056926
[MO833] Paramount Iteration,0,76,0.046152,7.056993
[MO833] Paramount Iteration,8,76,0.046358,7.057042
[MO833] Paramount Iteration,1,76,0.045682,7.057295
[MO833] Paramount Iteration,3,77,0.044926,7.101546
[MO833] Paramount Iteration,7,77,0.044761,7.101465
[MO833] Paramount Iteration,15,77,0.044450,7.101423
[MO833] Paramount Iteration,11,77,0.044623,7.101420
[MO833] Paramount Iteration,4,77,0.045322,7.101861
[MO833] Paramount Iteration,2,77,0.045584,7.102115
[MO833] Paramount Iteration,6,77,0.045466,7.102020
[MO833] Paramount Iteration,5,77,0.045664,7.102265
[MO833] Paramount Iteration,12,77,0.045450,7.102175
[MO833] Paramount Iteration,13,77,0.045920,7.102199
[MO833] Paramount Iteration,14,77,0.045351,7.102175
[MO833] Paramount Iteration,8,77,0.045062,7.102156
[MO833] Paramount Iteration,0,77,0.045194,7.102245
[MO833] Paramount Iteration,10,77,0.045496,7.102230
[MO833] Paramount Iteration,9,77,0.045837,7.102549
[MO833] Paramount Iteration,1,77,0.045746,7.103108
[MO833] Paramount Iteration,4,78,0.207840,7.309761
[MO833] Paramount Iteration,13,78,0.207378,7.309682
[MO833] Paramount Iteration,5,78,0.207487,7.309801
[MO833] Paramount Iteration,2,78,0.207811,7.309945
[MO833] Paramount Iteration,3,78,0.208355,7.309955
[MO833] Paramount Iteration,6,78,0.207814,7.309880
[MO833] Paramount Iteration,7,78,0.208391,7.309918
[MO833] Paramount Iteration,12,78,0.207885,7.310090
[MO833] Paramount Iteration,10,78,0.207728,7.310020
[MO833] Paramount Iteration,11,78,0.208567,7.310057
[MO833] Paramount Iteration,9,78,0.207563,7.310172
[MO833] Paramount Iteration,14,78,0.208017,7.310241
[MO833] Paramount Iteration,0,78,0.207935,7.310247
[MO833] Paramount Iteration,15,78,0.208756,7.310250
[MO833] Paramount Iteration,1,78,0.207327,7.310514
[MO833] Paramount Iteration,8,78,0.208229,7.310462
[MO833] Paramount Iteration,3,79,0.045170,7.355181
[MO833] Paramount Iteration,7,79,0.045202,7.355128
[MO833] Paramount Iteration,15,79,0.044867,7.355138
[MO833] Paramount Iteration,13,79,0.045491,7.355254
[MO833] Paramount Iteration,4,79,0.045627,7.355454
[MO833] Paramount Iteration,2,79,0.045604,7.355574
[MO833] Paramount Iteration,11,79,0.045278,7.355344
[MO833] Paramount Iteration,5,79,0.045840,7.355649
[MO833] Paramount Iteration,6,79,0.045588,7.355540
[MO833] Paramount Iteration,12,79,0.045506,7.355615
[MO833] Paramount Iteration,0,79,0.045504,7.355835
[MO833] Paramount Iteration,10,79,0.045674,7.355789
[MO833] Paramount Iteration,9,79,0.045628,7.355899
[MO833] Paramount Iteration,8,79,0.045596,7.356108
[MO833] Paramount Iteration,1,79,0.045737,7.356350
[MO833] Paramount Iteration,14,79,0.046062,7.356399
[MO833] Paramount Iteration,13,80,0.046905,7.402220
[MO833] Paramount Iteration,5,80,0.046682,7.402370
[MO833] Paramount Iteration,2,80,0.047003,7.402594
[MO833] Paramount Iteration,3,80,0.047445,7.402684
[MO833] Paramount Iteration,4,80,0.047124,7.402636
[MO833] Paramount Iteration,6,80,0.047133,7.402696
[MO833] Paramount Iteration,10,80,0.046847,7.402697
[MO833] Paramount Iteration,7,80,0.047616,7.402825
[MO833] Paramount Iteration,9,80,0.046772,7.402706
[MO833] Paramount Iteration,12,80,0.047228,7.402872
[MO833] Paramount Iteration,11,80,0.047351,7.402768
[MO833] Paramount Iteration,14,80,0.046415,7.402843
[MO833] Paramount Iteration,15,80,0.047834,7.403043
[MO833] Paramount Iteration,0,80,0.047121,7.403010
[MO833] Paramount Iteration,1,80,0.046620,7.403036
[MO833] Paramount Iteration,8,80,0.047012,7.403163
[MO833] Paramount Iteration,3,81,0.212698,7.615409
[MO833] Paramount Iteration,7,81,0.212671,7.615544
[MO833] Paramount Iteration,13,81,0.213319,7.615604
[MO833] Paramount Iteration,2,81,0.213167,7.615787
[MO833] Paramount Iteration,11,81,0.212768,7.615545
[MO833] Paramount Iteration,4,81,0.213143,7.615821
[MO833] Paramount Iteration,6,81,0.213075,7.615799
[MO833] Paramount Iteration,15,81,0.212756,7.615836
[MO833] Paramount Iteration,5,81,0.213578,7.616019
[MO833] Paramount Iteration,12,81,0.213113,7.616006
[MO833] Paramount Iteration,10,81,0.213113,7.615915
[MO833] Paramount Iteration,14,81,0.213232,7.616108
[MO833] Paramount Iteration,9,81,0.213366,7.616106
[MO833] Paramount Iteration,0,81,0.213126,7.616220
[MO833] Paramount Iteration,8,81,0.213103,7.616309
[MO833] Paramount Iteration,1,81,0.213570,7.616632
[MO833] Paramount Iteration,13,82,0.046750,7.662469
[MO833] Paramount Iteration,2,82,0.046834,7.662673
[MO833] Paramount Iteration,3,82,0.047188,7.662659
[MO833] Paramount Iteration,4,82,0.046832,7.662715
[MO833] Paramount Iteration,5,82,0.046645,7.662717
[MO833] Paramount Iteration,12,82,0.046968,7.662993
[MO833] Paramount Iteration,6,82,0.047137,7.662956
[MO833] Paramount Iteration,9,82,0.046656,7.662876
[MO833] Paramount Iteration,10,82,0.047003,7.662975
[MO833] Paramount Iteration,7,82,0.047449,7.663078
[MO833] Paramount Iteration,11,82,0.047359,7.662978
[MO833] Paramount Iteration,14,82,0.046975,7.663104
[MO833] Paramount Iteration,0,82,0.046815,7.663093
[MO833] Paramount Iteration,8,82,0.046838,7.663199
[MO833] Paramount Iteration,15,82,0.047409,7.663321
[MO833] Paramount Iteration,1,82,0.046703,7.663401
[MO833] Paramount Iteration,5,83,0.046480,7.709274
[MO833] Paramount Iteration,2,83,0.046732,7.709414
[MO833] Paramount Iteration,4,83,0.046597,7.709332
[MO833] Paramount Iteration,13,83,0.046707,7.709259
[MO833] Paramount Iteration,3,83,0.046689,7.709408
[MO833] Paramount Iteration,1,83,0.045963,7.709424
[MO833] Paramount Iteration,6,83,0.046465,7.709450
[MO833] Paramount Iteration,11,83,0.046400,7.709454
[MO833] Paramount Iteration,7,83,0.046430,7.709562
[MO833] Paramount Iteration,10,83,0.046566,7.709556
[MO833] Paramount Iteration,9,83,0.046578,7.709560
[MO833] Paramount Iteration,12,83,0.046748,7.709761
[MO833] Paramount Iteration,0,83,0.046553,7.709715
[MO833] Paramount Iteration,14,83,0.046781,7.709917
[MO833] Paramount Iteration,15,83,0.046665,7.710038
[MO833] Paramount Iteration,8,83,0.046830,7.710084
[MO833] Paramount Iteration,3,84,0.046008,7.755436
[MO833] Paramount Iteration,13,84,0.046086,7.755436
[MO833] Paramount Iteration,2,84,0.046206,7.755683
[MO833] Paramount Iteration,4,84,0.046325,7.755671
[MO833] Paramount Iteration,11,84,0.046043,7.755569
[MO833] Paramount Iteration,7,84,0.046032,7.755628
[MO833] Paramount Iteration,5,84,0.046525,7.755872
[MO833] Paramount Iteration,6,84,0.046281,7.755760
[MO833] Paramount Iteration,15,84,0.045702,7.755770
[MO833] Paramount Iteration,12,84,0.046085,7.755867
[MO833] Paramount Iteration,0,84,0.046111,7.755865
[MO833] Paramount Iteration,10,84,0.046225,7.755856
[MO833] Paramount Iteration,14,84,0.046113,7.756062
[MO833] Paramount Iteration,9,84,0.046418,7.756083
[MO833] Paramount Iteration,8,84,0.046030,7.756164
[MO833] Paramount Iteration,1,84,0.046620,7.756321
[MO833] Paramount Iteration,3,85,0.207050,7.962545
[MO833] Paramount Iteration,7,85,0.206811,7.962507
[MO833] Paramount Iteration,15,85,0.206782,7.962627
[MO833] Paramount Iteration,4,85,0.207182,7.962880
[MO833] Paramount Iteration,11,85,0.207065,7.962704
[MO833] Paramount Iteration,2,85,0.207290,7.963008
[MO833] Paramount Iteration,13,85,0.207360,7.962874
[MO833] Paramount Iteration,6,85,0.207130,7.962909
[MO833] Paramount Iteration,12,85,0.207169,7.963056
[MO833] Paramount Iteration,14,85,0.206936,7.963017
[MO833] Paramount Iteration,5,85,0.207305,7.963210
[MO833] Paramount Iteration,9,85,0.206913,7.963093
[MO833] Paramount Iteration,8,85,0.206959,7.963158
[MO833] Paramount Iteration,10,85,0.207261,7.963174
[MO833] Paramount Iteration,0,85,0.207435,7.963359
[MO833] Paramount Iteration,1,85,0.207471,7.963855
[MO833] Paramount Iteration,3,86,0.046303,8.008876
[MO833] Paramount Iteration,7,86,0.046153,8.008751
[MO833] Paramount Iteration,4,86,0.046056,8.008981
[MO833] Paramount Iteration,15,86,0.046268,8.008964
[MO833] Paramount Iteration,13,86,0.046146,8.009102
[MO833] Paramount Iteration,2,86,0.046237,8.009283
[MO833] Paramount Iteration,11,86,0.046255,8.009043
[MO833] Paramount Iteration,6,86,0.046221,8.009173
[MO833] Paramount Iteration,5,86,0.046081,8.009325
[MO833] Paramount Iteration,12,86,0.046196,8.009271
[MO833] Paramount Iteration,0,86,0.045813,8.009235
[MO833] Paramount Iteration,8,86,0.046114,8.009301
[MO833] Paramount Iteration,14,86,0.046344,8.009381
[MO833] Paramount Iteration,9,86,0.046252,8.009432
[MO833] Paramount Iteration,10,86,0.046230,8.009479
[MO833] Paramount Iteration,1,86,0.046001,8.009925
[MO833] Paramount Iteration,3,87,0.044680,8.053583
[MO833] Paramount Iteration,7,87,0.044792,8.053624
[MO833] Paramount Iteration,13,87,0.044621,8.053802
[MO833] Paramount Iteration,15,87,0.044759,8.053796
[MO833] Paramount Iteration,2,87,0.044741,8.054059
[MO833] Paramount Iteration,4,87,0.045045,8.054055
[MO833] Paramount Iteration,11,87,0.044744,8.053864
[MO833] Paramount Iteration,5,87,0.044860,8.054221
[MO833] Paramount Iteration,6,87,0.044884,8.054103
[MO833] Paramount Iteration,12,87,0.044882,8.054173
[MO833] Paramount Iteration,14,87,0.044773,8.054175
[MO833] Paramount Iteration,8,87,0.044934,8.054300
[MO833] Paramount Iteration,10,87,0.044758,8.054299
[MO833] Paramount Iteration,9,87,0.044805,8.054278
[MO833] Paramount Iteration,0,87,0.045196,8.054500
[MO833] Paramount Iteration,1,87,0.045026,8.055020
[MO833] Paramount Iteration,3,88,0.045754,8.099363
[MO833] Paramount Iteration,13,88,0.045345,8.099229
[MO833] Paramount Iteration,4,88,0.045324,8.099407
[MO833] Paramount Iteration,7,88,0.045654,8.099364
[MO833] Paramount Iteration,2,88,0.045503,8.099595
[MO833] Paramount Iteration,5,88,0.045297,8.099551
[MO833] Paramount Iteration,6,88,0.045373,8.099522
[MO833] Paramount Iteration,15,88,0.045665,8.099529
[MO833] Paramount Iteration,11,88,0.045570,8.099513
[MO833] Paramount Iteration,12,88,0.045500,8.099694
[MO833] Paramount Iteration,14,88,0.045483,8.099678
[MO833] Paramount Iteration,9,88,0.045262,8.099637
[MO833] Paramount Iteration,0,88,0.045162,8.099726
[MO833] Paramount Iteration,10,88,0.045422,8.099787
[MO833] Paramount Iteration,8,88,0.045607,8.099915
[MO833] Paramount Iteration,1,88,0.044991,8.100081
[MO833] Paramount Iteration,3,89,0.211455,8.310844
[MO833] Paramount Iteration,7,89,0.211219,8.310670
[MO833] Paramount Iteration,15,89,0.211106,8.310707
[MO833] Paramount Iteration,11,89,0.211148,8.310735
[MO833] Paramount Iteration,4,89,0.211686,8.311122
[MO833] Paramount Iteration,13,89,0.211913,8.311222
[MO833] Paramount Iteration,12,89,0.211548,8.311263
[MO833] Paramount Iteration,2,89,0.211819,8.311446
[MO833] Paramount Iteration,8,89,0.211278,8.311240
[MO833] Paramount Iteration,5,89,0.211955,8.311536
[MO833] Paramount Iteration,6,89,0.211856,8.311397
[MO833] Paramount Iteration,0,89,0.211621,8.311404
[MO833] Paramount Iteration,10,89,0.211674,8.311507
[MO833] Paramount Iteration,9,89,0.211924,8.311653
[MO833] Paramount Iteration,14,89,0.212019,8.311714
[MO833] Paramount Iteration,1,89,0.212233,8.312374
[MO833] Paramount Iteration,3,90,0.047576,8.358448
[MO833] Paramount Iteration,7,90,0.047655,8.358389
[MO833] Paramount Iteration,11,90,0.047547,8.358359
[MO833] Paramount Iteration,15,90,0.047704,8.358486
[MO833] Paramount Iteration,4,90,0.047556,8.358719
[MO833] Paramount Iteration,2,90,0.047568,8.359050
[MO833] Paramount Iteration,6,90,0.047479,8.358897
[MO833] Paramount Iteration,13,90,0.047683,8.358991
[MO833] Paramount Iteration,5,90,0.047553,8.359125
[MO833] Paramount Iteration,12,90,0.047801,8.359073
[MO833] Paramount Iteration,8,90,0.047615,8.358928
[MO833] Paramount Iteration,10,90,0.047585,8.359115
[MO833] Paramount Iteration,0,90,0.047738,8.359213
[MO833] Paramount Iteration,14,90,0.047519,8.359255
[MO833] Paramount Iteration,9,90,0.047603,8.359317
[MO833] Paramount Iteration,1,90,0.047661,8.360110
[MO833] Paramount Iteration,3,91,0.047441,8.405914
[MO833] Paramount Iteration,11,91,0.047414,8.405847
[MO833] Paramount Iteration,7,91,0.047545,8.406014
[MO833] Paramount Iteration,15,91,0.047477,8.406043
[MO833] Paramount Iteration,2,91,0.047317,8.406401
[MO833] Paramount Iteration,4,91,0.047649,8.406398
[MO833] Paramount Iteration,6,91,0.047498,8.406416
[MO833] Paramount Iteration,13,91,0.047411,8.406487
[MO833] Paramount Iteration,12,91,0.047453,8.406543
[MO833] Paramount Iteration,10,91,0.047349,8.406488
[MO833] Paramount Iteration,5,91,0.047639,8.406800
[MO833] Paramount Iteration,14,91,0.047369,8.406648
[MO833] Paramount Iteration,0,91,0.047558,8.406841
[MO833] Paramount Iteration,8,91,0.047747,8.406755
[MO833] Paramount Iteration,9,91,0.047541,8.406920
[MO833] Paramount Iteration,1,91,0.047406,8.407592
[MO833] Paramount Iteration,3,92,0.048378,8.454318
[MO833] Paramount Iteration,7,92,0.048242,8.454336
[MO833] Paramount Iteration,2,92,0.048564,8.454999
[MO833] Paramount Iteration,4,92,0.048528,8.454952
[MO833] Paramount Iteration,6,92,0.048529,8.454966
[MO833] Paramount Iteration,15,92,0.048830,8.454949
[MO833] Paramount Iteration,11,92,0.048970,8.454888
[MO833] Paramount Iteration,12,92,0.048548,8.455108
[MO833] Paramount Iteration,13,92,0.048653,8.455205
[MO833] Paramount Iteration,5,92,0.048522,8.455356
[MO833] Paramount Iteration,8,92,0.048336,8.455177
[MO833] Paramount Iteration,0,92,0.048418,8.455321
[MO833] Paramount Iteration,10,92,0.048943,8.455453
[MO833] Paramount Iteration,14,92,0.048872,8.455543
[MO833] Paramount Iteration,9,92,0.048733,8.455696
[MO833] Paramount Iteration,1,92,0.048614,8.456277
[MO833] Paramount Iteration,13,93,0.216371,8.671616
[MO833] Paramount Iteration,3,93,0.217432,8.671776
[MO833] Paramount Iteration,7,93,0.217212,8.671632
[MO833] Paramount Iteration,2,93,0.216996,8.672040
[MO833] Paramount Iteration,4,93,0.216981,8.671962
[MO833] Paramount Iteration,6,93,0.216960,8.671947
[MO833] Paramount Iteration,5,93,0.216714,8.672108
[MO833] Paramount Iteration,15,93,0.216948,8.671985
[MO833] Paramount Iteration,12,93,0.216931,8.672071
[MO833] Paramount Iteration,11,93,0.217172,8.672147
[MO833] Paramount Iteration,9,93,0.216400,8.672167
[MO833] Paramount Iteration,14,93,0.216745,8.672315
[MO833] Paramount Iteration,8,93,0.217004,8.672272
[MO833] Paramount Iteration,0,93,0.216956,8.672349
[MO833] Paramount Iteration,10,93,0.217015,8.672492
[MO833] Paramount Iteration,1,93,0.216413,8.672771
[MO833] Paramount Iteration,3,94,0.047138,8.718975
[MO833] Paramount Iteration,7,94,0.047101,8.718794
[MO833] Paramount Iteration,4,94,0.047332,8.719324
[MO833] Paramount Iteration,6,94,0.047336,8.719304
[MO833] Paramount Iteration,2,94,0.047410,8.719469
[MO833] Paramount Iteration,13,94,0.047758,8.719456
[MO833] Paramount Iteration,5,94,0.047433,8.719594
[MO833] Paramount Iteration,11,94,0.047137,8.719365
[MO833] Paramount Iteration,15,94,0.047440,8.719493
[MO833] Paramount Iteration,12,94,0.047646,8.719738
[MO833] Paramount Iteration,14,94,0.047574,8.719909
[MO833] Paramount Iteration,10,94,0.047382,8.719925
[MO833] Paramount Iteration,0,94,0.047561,8.720001
[MO833] Paramount Iteration,8,94,0.047751,8.720097
[MO833] Paramount Iteration,9,94,0.048002,8.720275
[MO833] Paramount Iteration,1,94,0.047985,8.720831
[MO833] Paramount Iteration,3,95,0.047577,8.766607
[MO833] Paramount Iteration,7,95,0.047585,8.766452
[MO833] Paramount Iteration,11,95,0.047224,8.766669
[MO833] Paramount Iteration,13,95,0.047313,8.766831
[MO833] Paramount Iteration,15,95,0.047195,8.766770
[MO833] Paramount Iteration,2,95,0.047551,8.767039
[MO833] Paramount Iteration,4,95,0.047788,8.767142
[MO833] Paramount Iteration,6,95,0.047771,8.767094
[MO833] Paramount Iteration,5,95,0.047677,8.767305
[MO833] Paramount Iteration,12,95,0.047460,8.767218
[MO833] Paramount Iteration,9,95,0.046904,8.767241
[MO833] Paramount Iteration,8,95,0.047144,8.767317
[MO833] Paramount Iteration,10,95,0.047360,8.767338
[MO833] Paramount Iteration,0,95,0.047402,8.767455
[MO833] Paramount Iteration,14,95,0.047616,8.767549
[MO833] Paramount Iteration,1,95,0.047078,8.767986
[MO833] Paramount Iteration,3,96,0.046855,8.813517
[MO833] Paramount Iteration,4,96,0.046567,8.813738
[MO833] Paramount Iteration,7,96,0.047059,8.813590
[MO833] Paramount Iteration,2,96,0.046796,8.813854
[MO833] Paramount Iteration,13,96,0.046899,8.813794
[MO833] Paramount Iteration,6,96,0.046689,8.813803
[MO833] Paramount Iteration,11,96,0.047093,8.813838
[MO833] Paramount Iteration,8,96,0.046478,8.813828
[MO833] Paramount Iteration,12,96,0.046768,8.814006
[MO833] Paramount Iteration,0,96,0.046416,8.813934
[MO833] Paramount Iteration,5,96,0.046820,8.814155
[MO833] Paramount Iteration,15,96,0.047246,8.814097
[MO833] Paramount Iteration,14,96,0.046544,8.814118
[MO833] Paramount Iteration,10,96,0.046774,8.814159
[MO833] Paramount Iteration,9,96,0.046834,8.814149
[MO833] Paramount Iteration,1,96,0.046786,8.814841
[MO833] Paramount Iteration,3,97,0.212756,9.026328
[MO833] Paramount Iteration,13,97,0.212330,9.026206
[MO833] Paramount Iteration,2,97,0.212505,9.026379
[MO833] Paramount Iteration,4,97,0.212770,9.026535
[MO833] Paramount Iteration,5,97,0.212462,9.026653
[MO833] Paramount Iteration,7,97,0.212828,9.026499
[MO833] Paramount Iteration,9,97,0.212207,9.026417
[MO833] Paramount Iteration,12,97,0.212585,9.026611
[MO833] Paramount Iteration,6,97,0.212795,9.026618
[MO833] Paramount Iteration,11,97,0.212598,9.026513
[MO833] Paramount Iteration,8,97,0.212653,9.026559
[MO833] Paramount Iteration,15,97,0.212446,9.026626
[MO833] Paramount Iteration,10,97,0.212330,9.026548
[MO833] Paramount Iteration,14,97,0.212672,9.026800
[MO833] Paramount Iteration,0,97,0.212867,9.026872
[MO833] Paramount Iteration,1,97,0.212199,9.027115
[MO833] Paramount Iteration,3,98,0.046876,9.073263
[MO833] Paramount Iteration,13,98,0.046937,9.073227
[MO833] Paramount Iteration,7,98,0.046654,9.073255
[MO833] Paramount Iteration,15,98,0.046602,9.073307
[MO833] Paramount Iteration,2,98,0.047121,9.073534
[MO833] Paramount Iteration,5,98,0.046920,9.073621
[MO833] Paramount Iteration,9,98,0.046899,9.073405
[MO833] Paramount Iteration,4,98,0.047093,9.073654
[MO833] Paramount Iteration,6,98,0.046904,9.073538
[MO833] Paramount Iteration,14,98,0.046755,9.073601
[MO833] Paramount Iteration,11,98,0.046929,9.073520
[MO833] Paramount Iteration,12,98,0.047142,9.073774
[MO833] Paramount Iteration,8,98,0.047096,9.073679
[MO833] Paramount Iteration,10,98,0.047247,9.073803
[MO833] Paramount Iteration,0,98,0.047089,9.074023
[MO833] Paramount Iteration,1,98,0.047125,9.074311
[MO833] Paramount Iteration,3,99,0.046526,9.119844
[MO833] Paramount Iteration,7,99,0.046494,9.119829
[MO833] Paramount Iteration,11,99,0.046380,9.119971
[MO833] Paramount Iteration,2,99,0.046711,9.120264
[MO833] Paramount Iteration,15,99,0.046721,9.120095
[MO833] Paramount Iteration,4,99,0.046581,9.120243
[MO833] Paramount Iteration,6,99,0.046633,9.120192
[MO833] Paramount Iteration,13,99,0.047014,9.120328
[MO833] Paramount Iteration,5,99,0.046853,9.120556
[MO833] Paramount Iteration,12,99,0.046750,9.120546
[MO833] Paramount Iteration,10,99,0.046607,9.120431
[MO833] Paramount Iteration,14,99,0.046914,9.120556
[MO833] Paramount Iteration,8,99,0.046752,9.120452
[MO833] Paramount Iteration,0,99,0.046595,9.120685
[MO833] Paramount Iteration,9,99,0.047198,9.120697
[MO833] Paramount Iteration,1,99,0.047066,9.121449
     100   0.97370899   0.44244116    20.501568    22.404572    4.6905307 
[MO833] Paramount Iteration,1,100,0.228725,9.350253
[MO833] Paramount Iteration,2,100,0.230181,9.350465
[MO833] Paramount Iteration,4,100,0.230191,9.350463
[MO833] Paramount Iteration,8,100,0.229759,9.350241
[MO833] Paramount Iteration,12,100,0.229845,9.350411
[MO833] Paramount Iteration,10,100,0.229854,9.350308
[MO833] Paramount Iteration,0,100,0.229555,9.350317
[MO833] Paramount Iteration,3,100,0.230573,9.350472
[MO833] Paramount Iteration,5,100,0.229879,9.350471
[MO833] Paramount Iteration,6,100,0.230141,9.350354
[MO833] Paramount Iteration,9,100,0.229505,9.350239
[MO833] Paramount Iteration,13,100,0.230002,9.350414
[MO833] Paramount Iteration,14,100,0.229800,9.350401
[MO833] Paramount Iteration,11,100,0.230279,9.350321
[MO833] Paramount Iteration,7,100,0.230450,9.350355
[MO833] Paramount Iteration,15,100,0.230244,9.350407
Loop time of 8.70553 on 16 procs for 100 steps with 2048000 atoms

Performance: 11909.673 tau/day, 11.487 timesteps/s
94.1% CPU use with 16 MPI tasks x 1 OpenMP threads

MPI task timing breakdown:
Section |  min time  |  avg time  |  max time  |%varavg| %total
---------------------------------------------------------------
Pair    | 1.4191     | 1.7333     | 1.9164     |  12.7 | 19.91
Bond    | 0.56402    | 0.79149    | 0.94661    |  15.8 |  9.09
Neigh   | 3.7759     | 3.7866     | 3.8        |   0.4 | 43.50
Comm    | 0.74124    | 1.083      | 1.6687     |  30.0 | 12.44
Output  | 0.001462   | 0.0018128  | 0.0022435  |   0.5 |  0.02
Modify  | 0.92118    | 0.98373    | 1.0876     |   4.1 | 11.30
Other   |            | 0.3255     |            |       |  3.74

Nlocal:    128000 ave 128092 max 127945 min
Histogram: 1 4 3 0 3 3 1 0 0 1
Nghost:    24499.1 ave 24615 max 24407 min
Histogram: 3 0 1 1 6 1 1 1 1 1
Neighs:    623046 ave 623809 max 622608 min
Histogram: 3 3 2 0 3 3 0 1 0 1

Total # of neighbors = 9968733
Ave neighs/atom = 4.86755
Ave special neighs/atom = 1.98
Neighbor list builds = 26
Dangerous builds = 0
Total wall time: 0:00:09
[MO833] Beta,1,0.078220
[MO833] Beta,2,0.078259
[MO833] PI avg,2,0.087052,100
[MO833] Beta,3,0.078255
[MO833] Beta,6,0.078224
[MO833] PI avg,6,0.087053,100
[MO833] Beta,10,0.078213
[MO833] PI avg,10,0.087054,100
[MO833] PI avg,3,0.087052,100
[MO833] Beta,9,0.078225
[MO833] Beta,11,0.078219
[MO833] Beta,7,0.078234
[MO833] PI avg,9,0.087053,100
[MO833] PI avg,11,0.087055,100
[MO833] Beta,5,0.078245
[MO833] PI avg,7,0.087054,100
[MO833] Beta,8,0.078237
[MO833] PI avg,8,0.087053,100
[MO833] Beta,13,0.078246
[MO833] PI avg,5,0.087054,100
[MO833] PI avg,13,0.087054,100
[MO833] PI avg,1,0.087053,100
[MO833] Beta,15,0.078251
[MO833] PI avg,15,0.087054,100
[MO833] Beta,4,0.078292
[MO833] PI avg,4,0.087054,100
[MO833] Beta,0,0.078302
[MO833] PI avg,0,0.087054,100
[MO833] Total time,9.387031
[MO833] Beta,12,0.078351
[MO833] PI avg,12,0.087054,100
[MO833] Beta,14,0.078339
[MO833] PI avg,14,0.087054,100
